h 1 0 4 tcp 40 ------- 0 0.0 1.0 0 0
+ 1.01 0 4 tcp 40 ------- 0 0.0 1.0 0 0
- 1.01 0 4 tcp 40 ------- 0 0.0 1.0 0 0
r 1.020014 4 1 tcp 40 ------- 0 0.0 1.0 0 0
h 1.020014 1 4 ack 40 ------- 0 1.0 0.0 0 1
+ 1.030014 1 4 ack 40 ------- 0 1.0 0.0 0 1
- 1.030014 1 4 ack 40 ------- 0 1.0 0.0 0 1
r 1.040028 4 0 ack 40 ------- 0 1.0 0.0 0 1
h 1.040028 0 4 tcp 1040 ------- 0 0.0 1.0 1 2
h 1.040028 0 4 tcp 1040 ------- 0 0.0 1.0 2 3
+ 1.050028 0 4 tcp 1040 ------- 0 0.0 1.0 1 2
- 1.050028 0 4 tcp 1040 ------- 0 0.0 1.0 1 2
+ 1.050028 0 4 tcp 1040 ------- 0 0.0 1.0 2 3
- 1.050199 0 4 tcp 1040 ------- 0 0.0 1.0 2 3
r 1.060201 4 1 tcp 1040 ------- 0 0.0 1.0 1 2
h 1.060201 1 4 ack 40 ------- 0 1.0 0.0 1 4
r 1.060372 4 1 tcp 1040 ------- 0 0.0 1.0 2 3
h 1.060372 1 4 ack 40 ------- 0 1.0 0.0 2 5
+ 1.070201 1 4 ack 40 ------- 0 1.0 0.0 1 4
- 1.070201 1 4 ack 40 ------- 0 1.0 0.0 1 4
+ 1.070372 1 4 ack 40 ------- 0 1.0 0.0 2 5
- 1.070372 1 4 ack 40 ------- 0 1.0 0.0 2 5
r 1.080215 4 0 ack 40 ------- 0 1.0 0.0 1 4
h 1.080215 0 4 tcp 1040 ------- 0 0.0 1.0 3 6
h 1.080215 0 4 tcp 1040 ------- 0 0.0 1.0 4 7
r 1.080386 4 0 ack 40 ------- 0 1.0 0.0 2 5
h 1.080386 0 4 tcp 1040 ------- 0 0.0 1.0 5 8
h 1.080386 0 4 tcp 1040 ------- 0 0.0 1.0 6 9
+ 1.090215 0 4 tcp 1040 ------- 0 0.0 1.0 3 6
- 1.090215 0 4 tcp 1040 ------- 0 0.0 1.0 3 6
+ 1.090215 0 4 tcp 1040 ------- 0 0.0 1.0 4 7
+ 1.090386 0 4 tcp 1040 ------- 0 0.0 1.0 5 8
+ 1.090386 0 4 tcp 1040 ------- 0 0.0 1.0 6 9
- 1.090386 0 4 tcp 1040 ------- 0 0.0 1.0 4 7
- 1.090556 0 4 tcp 1040 ------- 0 0.0 1.0 5 8
- 1.090727 0 4 tcp 1040 ------- 0 0.0 1.0 6 9
r 1.100388 4 1 tcp 1040 ------- 0 0.0 1.0 3 6
h 1.100388 1 4 ack 40 ------- 0 1.0 0.0 3 10
r 1.100559 4 1 tcp 1040 ------- 0 0.0 1.0 4 7
h 1.100559 1 4 ack 40 ------- 0 1.0 0.0 4 11
r 1.100729 4 1 tcp 1040 ------- 0 0.0 1.0 5 8
h 1.100729 1 4 ack 40 ------- 0 1.0 0.0 5 12
r 1.1009 4 1 tcp 1040 ------- 0 0.0 1.0 6 9
h 1.1009 1 4 ack 40 ------- 0 1.0 0.0 6 13
+ 1.110388 1 4 ack 40 ------- 0 1.0 0.0 3 10
- 1.110388 1 4 ack 40 ------- 0 1.0 0.0 3 10
+ 1.110559 1 4 ack 40 ------- 0 1.0 0.0 4 11
- 1.110559 1 4 ack 40 ------- 0 1.0 0.0 4 11
+ 1.110729 1 4 ack 40 ------- 0 1.0 0.0 5 12
- 1.110729 1 4 ack 40 ------- 0 1.0 0.0 5 12
+ 1.1109 1 4 ack 40 ------- 0 1.0 0.0 6 13
- 1.1109 1 4 ack 40 ------- 0 1.0 0.0 6 13
r 1.120402 4 0 ack 40 ------- 0 1.0 0.0 3 10
h 1.120402 0 4 tcp 1040 ------- 0 0.0 1.0 7 14
h 1.120402 0 4 tcp 1040 ------- 0 0.0 1.0 8 15
r 1.120573 4 0 ack 40 ------- 0 1.0 0.0 4 11
h 1.120573 0 4 tcp 1040 ------- 0 0.0 1.0 9 16
h 1.120573 0 4 tcp 1040 ------- 0 0.0 1.0 10 17
r 1.120743 4 0 ack 40 ------- 0 1.0 0.0 5 12
h 1.120743 0 4 tcp 1040 ------- 0 0.0 1.0 11 18
h 1.120743 0 4 tcp 1040 ------- 0 0.0 1.0 12 19
r 1.120914 4 0 ack 40 ------- 0 1.0 0.0 6 13
h 1.120914 0 4 tcp 1040 ------- 0 0.0 1.0 13 20
h 1.120914 0 4 tcp 1040 ------- 0 0.0 1.0 14 21
+ 1.130402 0 4 tcp 1040 ------- 0 0.0 1.0 7 14
- 1.130402 0 4 tcp 1040 ------- 0 0.0 1.0 7 14
+ 1.130402 0 4 tcp 1040 ------- 0 0.0 1.0 8 15
+ 1.130573 0 4 tcp 1040 ------- 0 0.0 1.0 9 16
+ 1.130573 0 4 tcp 1040 ------- 0 0.0 1.0 10 17
- 1.130573 0 4 tcp 1040 ------- 0 0.0 1.0 8 15
+ 1.130743 0 4 tcp 1040 ------- 0 0.0 1.0 11 18
+ 1.130743 0 4 tcp 1040 ------- 0 0.0 1.0 12 19
- 1.130743 0 4 tcp 1040 ------- 0 0.0 1.0 9 16
+ 1.130914 0 4 tcp 1040 ------- 0 0.0 1.0 13 20
+ 1.130914 0 4 tcp 1040 ------- 0 0.0 1.0 14 21
- 1.130914 0 4 tcp 1040 ------- 0 0.0 1.0 10 17
- 1.131084 0 4 tcp 1040 ------- 0 0.0 1.0 11 18
- 1.131255 0 4 tcp 1040 ------- 0 0.0 1.0 12 19
- 1.131426 0 4 tcp 1040 ------- 0 0.0 1.0 13 20
- 1.131596 0 4 tcp 1040 ------- 0 0.0 1.0 14 21
r 1.140575 4 1 tcp 1040 ------- 0 0.0 1.0 7 14
h 1.140575 1 4 ack 40 ------- 0 1.0 0.0 7 22
r 1.140745 4 1 tcp 1040 ------- 0 0.0 1.0 8 15
h 1.140745 1 4 ack 40 ------- 0 1.0 0.0 8 23
r 1.140916 4 1 tcp 1040 ------- 0 0.0 1.0 9 16
h 1.140916 1 4 ack 40 ------- 0 1.0 0.0 9 24
r 1.141087 4 1 tcp 1040 ------- 0 0.0 1.0 10 17
h 1.141087 1 4 ack 40 ------- 0 1.0 0.0 10 25
r 1.141257 4 1 tcp 1040 ------- 0 0.0 1.0 11 18
h 1.141257 1 4 ack 40 ------- 0 1.0 0.0 11 26
r 1.141428 4 1 tcp 1040 ------- 0 0.0 1.0 12 19
h 1.141428 1 4 ack 40 ------- 0 1.0 0.0 12 27
r 1.141598 4 1 tcp 1040 ------- 0 0.0 1.0 13 20
h 1.141598 1 4 ack 40 ------- 0 1.0 0.0 13 28
r 1.141769 4 1 tcp 1040 ------- 0 0.0 1.0 14 21
h 1.141769 1 4 ack 40 ------- 0 1.0 0.0 14 29
+ 1.150575 1 4 ack 40 ------- 0 1.0 0.0 7 22
- 1.150575 1 4 ack 40 ------- 0 1.0 0.0 7 22
+ 1.150745 1 4 ack 40 ------- 0 1.0 0.0 8 23
- 1.150745 1 4 ack 40 ------- 0 1.0 0.0 8 23
+ 1.150916 1 4 ack 40 ------- 0 1.0 0.0 9 24
- 1.150916 1 4 ack 40 ------- 0 1.0 0.0 9 24
+ 1.151087 1 4 ack 40 ------- 0 1.0 0.0 10 25
- 1.151087 1 4 ack 40 ------- 0 1.0 0.0 10 25
+ 1.151257 1 4 ack 40 ------- 0 1.0 0.0 11 26
- 1.151257 1 4 ack 40 ------- 0 1.0 0.0 11 26
+ 1.151428 1 4 ack 40 ------- 0 1.0 0.0 12 27
- 1.151428 1 4 ack 40 ------- 0 1.0 0.0 12 27
+ 1.151598 1 4 ack 40 ------- 0 1.0 0.0 13 28
- 1.151598 1 4 ack 40 ------- 0 1.0 0.0 13 28
+ 1.151769 1 4 ack 40 ------- 0 1.0 0.0 14 29
- 1.151769 1 4 ack 40 ------- 0 1.0 0.0 14 29
r 1.160589 4 0 ack 40 ------- 0 1.0 0.0 7 22
h 1.160589 0 4 tcp 1040 ------- 0 0.0 1.0 15 30
h 1.160589 0 4 tcp 1040 ------- 0 0.0 1.0 16 31
r 1.16076 4 0 ack 40 ------- 0 1.0 0.0 8 23
h 1.16076 0 4 tcp 1040 ------- 0 0.0 1.0 17 32
h 1.16076 0 4 tcp 1040 ------- 0 0.0 1.0 18 33
r 1.16093 4 0 ack 40 ------- 0 1.0 0.0 9 24
h 1.16093 0 4 tcp 1040 ------- 0 0.0 1.0 19 34
h 1.16093 0 4 tcp 1040 ------- 0 0.0 1.0 20 35
r 1.161101 4 0 ack 40 ------- 0 1.0 0.0 10 25
h 1.161101 0 4 tcp 1040 ------- 0 0.0 1.0 21 36
h 1.161101 0 4 tcp 1040 ------- 0 0.0 1.0 22 37
r 1.161271 4 0 ack 40 ------- 0 1.0 0.0 11 26
h 1.161271 0 4 tcp 1040 ------- 0 0.0 1.0 23 38
h 1.161271 0 4 tcp 1040 ------- 0 0.0 1.0 24 39
r 1.161442 4 0 ack 40 ------- 0 1.0 0.0 12 27
h 1.161442 0 4 tcp 1040 ------- 0 0.0 1.0 25 40
h 1.161442 0 4 tcp 1040 ------- 0 0.0 1.0 26 41
r 1.161612 4 0 ack 40 ------- 0 1.0 0.0 13 28
h 1.161612 0 4 tcp 1040 ------- 0 0.0 1.0 27 42
h 1.161612 0 4 tcp 1040 ------- 0 0.0 1.0 28 43
r 1.161783 4 0 ack 40 ------- 0 1.0 0.0 14 29
h 1.161783 0 4 tcp 1040 ------- 0 0.0 1.0 29 44
h 1.161783 0 4 tcp 1040 ------- 0 0.0 1.0 30 45
+ 1.170589 0 4 tcp 1040 ------- 0 0.0 1.0 15 30
- 1.170589 0 4 tcp 1040 ------- 0 0.0 1.0 15 30
+ 1.170589 0 4 tcp 1040 ------- 0 0.0 1.0 16 31
+ 1.17076 0 4 tcp 1040 ------- 0 0.0 1.0 17 32
+ 1.17076 0 4 tcp 1040 ------- 0 0.0 1.0 18 33
- 1.17076 0 4 tcp 1040 ------- 0 0.0 1.0 16 31
+ 1.17093 0 4 tcp 1040 ------- 0 0.0 1.0 19 34
+ 1.17093 0 4 tcp 1040 ------- 0 0.0 1.0 20 35
- 1.17093 0 4 tcp 1040 ------- 0 0.0 1.0 17 32
+ 1.171101 0 4 tcp 1040 ------- 0 0.0 1.0 21 36
+ 1.171101 0 4 tcp 1040 ------- 0 0.0 1.0 22 37
- 1.171101 0 4 tcp 1040 ------- 0 0.0 1.0 18 33
+ 1.171271 0 4 tcp 1040 ------- 0 0.0 1.0 23 38
+ 1.171271 0 4 tcp 1040 ------- 0 0.0 1.0 24 39
- 1.171271 0 4 tcp 1040 ------- 0 0.0 1.0 19 34
+ 1.171442 0 4 tcp 1040 ------- 0 0.0 1.0 25 40
+ 1.171442 0 4 tcp 1040 ------- 0 0.0 1.0 26 41
- 1.171442 0 4 tcp 1040 ------- 0 0.0 1.0 20 35
+ 1.171612 0 4 tcp 1040 ------- 0 0.0 1.0 27 42
+ 1.171612 0 4 tcp 1040 ------- 0 0.0 1.0 28 43
- 1.171612 0 4 tcp 1040 ------- 0 0.0 1.0 21 36
+ 1.171783 0 4 tcp 1040 ------- 0 0.0 1.0 29 44
+ 1.171783 0 4 tcp 1040 ------- 0 0.0 1.0 30 45
- 1.171783 0 4 tcp 1040 ------- 0 0.0 1.0 22 37
- 1.171954 0 4 tcp 1040 ------- 0 0.0 1.0 23 38
- 1.172124 0 4 tcp 1040 ------- 0 0.0 1.0 24 39
- 1.172295 0 4 tcp 1040 ------- 0 0.0 1.0 25 40
- 1.172465 0 4 tcp 1040 ------- 0 0.0 1.0 26 41
- 1.172636 0 4 tcp 1040 ------- 0 0.0 1.0 27 42
- 1.172806 0 4 tcp 1040 ------- 0 0.0 1.0 28 43
- 1.172977 0 4 tcp 1040 ------- 0 0.0 1.0 29 44
- 1.173148 0 4 tcp 1040 ------- 0 0.0 1.0 30 45
r 1.180762 4 1 tcp 1040 ------- 0 0.0 1.0 15 30
h 1.180762 1 4 ack 40 ------- 0 1.0 0.0 15 46
r 1.180932 4 1 tcp 1040 ------- 0 0.0 1.0 16 31
h 1.180932 1 4 ack 40 ------- 0 1.0 0.0 16 47
r 1.181103 4 1 tcp 1040 ------- 0 0.0 1.0 17 32
h 1.181103 1 4 ack 40 ------- 0 1.0 0.0 17 48
r 1.181273 4 1 tcp 1040 ------- 0 0.0 1.0 18 33
h 1.181273 1 4 ack 40 ------- 0 1.0 0.0 18 49
r 1.181444 4 1 tcp 1040 ------- 0 0.0 1.0 19 34
h 1.181444 1 4 ack 40 ------- 0 1.0 0.0 19 50
r 1.181615 4 1 tcp 1040 ------- 0 0.0 1.0 20 35
h 1.181615 1 4 ack 40 ------- 0 1.0 0.0 20 51
r 1.181785 4 1 tcp 1040 ------- 0 0.0 1.0 21 36
h 1.181785 1 4 ack 40 ------- 0 1.0 0.0 21 52
r 1.181956 4 1 tcp 1040 ------- 0 0.0 1.0 22 37
h 1.181956 1 4 ack 40 ------- 0 1.0 0.0 22 53
r 1.182126 4 1 tcp 1040 ------- 0 0.0 1.0 23 38
h 1.182126 1 4 ack 40 ------- 0 1.0 0.0 23 54
r 1.182297 4 1 tcp 1040 ------- 0 0.0 1.0 24 39
h 1.182297 1 4 ack 40 ------- 0 1.0 0.0 24 55
r 1.182467 4 1 tcp 1040 ------- 0 0.0 1.0 25 40
h 1.182467 1 4 ack 40 ------- 0 1.0 0.0 25 56
r 1.182638 4 1 tcp 1040 ------- 0 0.0 1.0 26 41
h 1.182638 1 4 ack 40 ------- 0 1.0 0.0 26 57
r 1.182808 4 1 tcp 1040 ------- 0 0.0 1.0 27 42
h 1.182808 1 4 ack 40 ------- 0 1.0 0.0 27 58
r 1.182979 4 1 tcp 1040 ------- 0 0.0 1.0 28 43
h 1.182979 1 4 ack 40 ------- 0 1.0 0.0 28 59
r 1.18315 4 1 tcp 1040 ------- 0 0.0 1.0 29 44
h 1.18315 1 4 ack 40 ------- 0 1.0 0.0 29 60
r 1.18332 4 1 tcp 1040 ------- 0 0.0 1.0 30 45
h 1.18332 1 4 ack 40 ------- 0 1.0 0.0 30 61
+ 1.190762 1 4 ack 40 ------- 0 1.0 0.0 15 46
- 1.190762 1 4 ack 40 ------- 0 1.0 0.0 15 46
+ 1.190932 1 4 ack 40 ------- 0 1.0 0.0 16 47
- 1.190932 1 4 ack 40 ------- 0 1.0 0.0 16 47
+ 1.191103 1 4 ack 40 ------- 0 1.0 0.0 17 48
- 1.191103 1 4 ack 40 ------- 0 1.0 0.0 17 48
+ 1.191273 1 4 ack 40 ------- 0 1.0 0.0 18 49
- 1.191273 1 4 ack 40 ------- 0 1.0 0.0 18 49
+ 1.191444 1 4 ack 40 ------- 0 1.0 0.0 19 50
- 1.191444 1 4 ack 40 ------- 0 1.0 0.0 19 50
+ 1.191615 1 4 ack 40 ------- 0 1.0 0.0 20 51
- 1.191615 1 4 ack 40 ------- 0 1.0 0.0 20 51
+ 1.191785 1 4 ack 40 ------- 0 1.0 0.0 21 52
- 1.191785 1 4 ack 40 ------- 0 1.0 0.0 21 52
+ 1.191956 1 4 ack 40 ------- 0 1.0 0.0 22 53
- 1.191956 1 4 ack 40 ------- 0 1.0 0.0 22 53
+ 1.192126 1 4 ack 40 ------- 0 1.0 0.0 23 54
- 1.192126 1 4 ack 40 ------- 0 1.0 0.0 23 54
+ 1.192297 1 4 ack 40 ------- 0 1.0 0.0 24 55
- 1.192297 1 4 ack 40 ------- 0 1.0 0.0 24 55
+ 1.192467 1 4 ack 40 ------- 0 1.0 0.0 25 56
- 1.192467 1 4 ack 40 ------- 0 1.0 0.0 25 56
+ 1.192638 1 4 ack 40 ------- 0 1.0 0.0 26 57
- 1.192638 1 4 ack 40 ------- 0 1.0 0.0 26 57
+ 1.192808 1 4 ack 40 ------- 0 1.0 0.0 27 58
- 1.192808 1 4 ack 40 ------- 0 1.0 0.0 27 58
+ 1.192979 1 4 ack 40 ------- 0 1.0 0.0 28 59
- 1.192979 1 4 ack 40 ------- 0 1.0 0.0 28 59
+ 1.19315 1 4 ack 40 ------- 0 1.0 0.0 29 60
- 1.19315 1 4 ack 40 ------- 0 1.0 0.0 29 60
+ 1.19332 1 4 ack 40 ------- 0 1.0 0.0 30 61
- 1.19332 1 4 ack 40 ------- 0 1.0 0.0 30 61
r 1.200776 4 0 ack 40 ------- 0 1.0 0.0 15 46
h 1.200776 0 4 tcp 1040 ------- 0 0.0 1.0 31 62
h 1.200776 0 4 tcp 1040 ------- 0 0.0 1.0 32 63
r 1.200947 4 0 ack 40 ------- 0 1.0 0.0 16 47
h 1.200947 0 4 tcp 1040 ------- 0 0.0 1.0 33 64
h 1.200947 0 4 tcp 1040 ------- 0 0.0 1.0 34 65
r 1.201117 4 0 ack 40 ------- 0 1.0 0.0 17 48
h 1.201117 0 4 tcp 1040 ------- 0 0.0 1.0 35 66
h 1.201117 0 4 tcp 1040 ------- 0 0.0 1.0 36 67
r 1.201288 4 0 ack 40 ------- 0 1.0 0.0 18 49
h 1.201288 0 4 tcp 1040 ------- 0 0.0 1.0 37 68
h 1.201288 0 4 tcp 1040 ------- 0 0.0 1.0 38 69
r 1.201458 4 0 ack 40 ------- 0 1.0 0.0 19 50
h 1.201458 0 4 tcp 1040 ------- 0 0.0 1.0 39 70
r 1.201629 4 0 ack 40 ------- 0 1.0 0.0 20 51
h 1.201629 0 4 tcp 1040 ------- 0 0.0 1.0 40 71
r 1.201799 4 0 ack 40 ------- 0 1.0 0.0 21 52
h 1.201799 0 4 tcp 1040 ------- 0 0.0 1.0 41 72
r 1.20197 4 0 ack 40 ------- 0 1.0 0.0 22 53
h 1.20197 0 4 tcp 1040 ------- 0 0.0 1.0 42 73
r 1.20214 4 0 ack 40 ------- 0 1.0 0.0 23 54
h 1.20214 0 4 tcp 1040 ------- 0 0.0 1.0 43 74
r 1.202311 4 0 ack 40 ------- 0 1.0 0.0 24 55
h 1.202311 0 4 tcp 1040 ------- 0 0.0 1.0 44 75
r 1.202482 4 0 ack 40 ------- 0 1.0 0.0 25 56
h 1.202482 0 4 tcp 1040 ------- 0 0.0 1.0 45 76
r 1.202652 4 0 ack 40 ------- 0 1.0 0.0 26 57
h 1.202652 0 4 tcp 1040 ------- 0 0.0 1.0 46 77
r 1.202823 4 0 ack 40 ------- 0 1.0 0.0 27 58
h 1.202823 0 4 tcp 1040 ------- 0 0.0 1.0 47 78
r 1.202993 4 0 ack 40 ------- 0 1.0 0.0 28 59
h 1.202993 0 4 tcp 1040 ------- 0 0.0 1.0 48 79
r 1.203164 4 0 ack 40 ------- 0 1.0 0.0 29 60
h 1.203164 0 4 tcp 1040 ------- 0 0.0 1.0 49 80
r 1.203334 4 0 ack 40 ------- 0 1.0 0.0 30 61
h 1.203334 0 4 tcp 1040 ------- 0 0.0 1.0 50 81
+ 1.210776 0 4 tcp 1040 ------- 0 0.0 1.0 31 62
- 1.210776 0 4 tcp 1040 ------- 0 0.0 1.0 31 62
+ 1.210776 0 4 tcp 1040 ------- 0 0.0 1.0 32 63
+ 1.210947 0 4 tcp 1040 ------- 0 0.0 1.0 33 64
+ 1.210947 0 4 tcp 1040 ------- 0 0.0 1.0 34 65
- 1.210947 0 4 tcp 1040 ------- 0 0.0 1.0 32 63
+ 1.211117 0 4 tcp 1040 ------- 0 0.0 1.0 35 66
+ 1.211117 0 4 tcp 1040 ------- 0 0.0 1.0 36 67
- 1.211117 0 4 tcp 1040 ------- 0 0.0 1.0 33 64
+ 1.211288 0 4 tcp 1040 ------- 0 0.0 1.0 37 68
+ 1.211288 0 4 tcp 1040 ------- 0 0.0 1.0 38 69
- 1.211288 0 4 tcp 1040 ------- 0 0.0 1.0 34 65
+ 1.211458 0 4 tcp 1040 ------- 0 0.0 1.0 39 70
- 1.211458 0 4 tcp 1040 ------- 0 0.0 1.0 35 66
+ 1.211629 0 4 tcp 1040 ------- 0 0.0 1.0 40 71
- 1.211629 0 4 tcp 1040 ------- 0 0.0 1.0 36 67
+ 1.211799 0 4 tcp 1040 ------- 0 0.0 1.0 41 72
- 1.211799 0 4 tcp 1040 ------- 0 0.0 1.0 37 68
+ 1.21197 0 4 tcp 1040 ------- 0 0.0 1.0 42 73
- 1.21197 0 4 tcp 1040 ------- 0 0.0 1.0 38 69
+ 1.21214 0 4 tcp 1040 ------- 0 0.0 1.0 43 74
- 1.21214 0 4 tcp 1040 ------- 0 0.0 1.0 39 70
+ 1.212311 0 4 tcp 1040 ------- 0 0.0 1.0 44 75
- 1.212311 0 4 tcp 1040 ------- 0 0.0 1.0 40 71
+ 1.212482 0 4 tcp 1040 ------- 0 0.0 1.0 45 76
- 1.212482 0 4 tcp 1040 ------- 0 0.0 1.0 41 72
+ 1.212652 0 4 tcp 1040 ------- 0 0.0 1.0 46 77
- 1.212652 0 4 tcp 1040 ------- 0 0.0 1.0 42 73
+ 1.212823 0 4 tcp 1040 ------- 0 0.0 1.0 47 78
- 1.212823 0 4 tcp 1040 ------- 0 0.0 1.0 43 74
+ 1.212993 0 4 tcp 1040 ------- 0 0.0 1.0 48 79
- 1.212993 0 4 tcp 1040 ------- 0 0.0 1.0 44 75
+ 1.213164 0 4 tcp 1040 ------- 0 0.0 1.0 49 80
- 1.213164 0 4 tcp 1040 ------- 0 0.0 1.0 45 76
+ 1.213334 0 4 tcp 1040 ------- 0 0.0 1.0 50 81
- 1.213334 0 4 tcp 1040 ------- 0 0.0 1.0 46 77
- 1.213505 0 4 tcp 1040 ------- 0 0.0 1.0 47 78
- 1.213676 0 4 tcp 1040 ------- 0 0.0 1.0 48 79
- 1.213846 0 4 tcp 1040 ------- 0 0.0 1.0 49 80
- 1.214017 0 4 tcp 1040 ------- 0 0.0 1.0 50 81
r 1.220949 4 1 tcp 1040 ------- 0 0.0 1.0 31 62
h 1.220949 1 4 ack 40 ------- 0 1.0 0.0 31 82
r 1.221119 4 1 tcp 1040 ------- 0 0.0 1.0 32 63
h 1.221119 1 4 ack 40 ------- 0 1.0 0.0 32 83
r 1.22129 4 1 tcp 1040 ------- 0 0.0 1.0 33 64
h 1.22129 1 4 ack 40 ------- 0 1.0 0.0 33 84
r 1.22146 4 1 tcp 1040 ------- 0 0.0 1.0 34 65
h 1.22146 1 4 ack 40 ------- 0 1.0 0.0 34 85
r 1.221631 4 1 tcp 1040 ------- 0 0.0 1.0 35 66
h 1.221631 1 4 ack 40 ------- 0 1.0 0.0 35 86
r 1.221801 4 1 tcp 1040 ------- 0 0.0 1.0 36 67
h 1.221801 1 4 ack 40 ------- 0 1.0 0.0 36 87
r 1.221972 4 1 tcp 1040 ------- 0 0.0 1.0 37 68
h 1.221972 1 4 ack 40 ------- 0 1.0 0.0 37 88
r 1.222143 4 1 tcp 1040 ------- 0 0.0 1.0 38 69
h 1.222143 1 4 ack 40 ------- 0 1.0 0.0 38 89
r 1.222313 4 1 tcp 1040 ------- 0 0.0 1.0 39 70
h 1.222313 1 4 ack 40 ------- 0 1.0 0.0 39 90
r 1.222484 4 1 tcp 1040 ------- 0 0.0 1.0 40 71
h 1.222484 1 4 ack 40 ------- 0 1.0 0.0 40 91
r 1.222654 4 1 tcp 1040 ------- 0 0.0 1.0 41 72
h 1.222654 1 4 ack 40 ------- 0 1.0 0.0 41 92
r 1.222825 4 1 tcp 1040 ------- 0 0.0 1.0 42 73
h 1.222825 1 4 ack 40 ------- 0 1.0 0.0 42 93
r 1.222995 4 1 tcp 1040 ------- 0 0.0 1.0 43 74
h 1.222995 1 4 ack 40 ------- 0 1.0 0.0 43 94
r 1.223166 4 1 tcp 1040 ------- 0 0.0 1.0 44 75
h 1.223166 1 4 ack 40 ------- 0 1.0 0.0 44 95
r 1.223336 4 1 tcp 1040 ------- 0 0.0 1.0 45 76
h 1.223336 1 4 ack 40 ------- 0 1.0 0.0 45 96
r 1.223507 4 1 tcp 1040 ------- 0 0.0 1.0 46 77
h 1.223507 1 4 ack 40 ------- 0 1.0 0.0 46 97
r 1.223678 4 1 tcp 1040 ------- 0 0.0 1.0 47 78
h 1.223678 1 4 ack 40 ------- 0 1.0 0.0 47 98
r 1.223848 4 1 tcp 1040 ------- 0 0.0 1.0 48 79
h 1.223848 1 4 ack 40 ------- 0 1.0 0.0 48 99
r 1.224019 4 1 tcp 1040 ------- 0 0.0 1.0 49 80
h 1.224019 1 4 ack 40 ------- 0 1.0 0.0 49 100
r 1.224189 4 1 tcp 1040 ------- 0 0.0 1.0 50 81
h 1.224189 1 4 ack 40 ------- 0 1.0 0.0 50 101
+ 1.230949 1 4 ack 40 ------- 0 1.0 0.0 31 82
- 1.230949 1 4 ack 40 ------- 0 1.0 0.0 31 82
+ 1.231119 1 4 ack 40 ------- 0 1.0 0.0 32 83
- 1.231119 1 4 ack 40 ------- 0 1.0 0.0 32 83
+ 1.23129 1 4 ack 40 ------- 0 1.0 0.0 33 84
- 1.23129 1 4 ack 40 ------- 0 1.0 0.0 33 84
+ 1.23146 1 4 ack 40 ------- 0 1.0 0.0 34 85
- 1.23146 1 4 ack 40 ------- 0 1.0 0.0 34 85
+ 1.231631 1 4 ack 40 ------- 0 1.0 0.0 35 86
- 1.231631 1 4 ack 40 ------- 0 1.0 0.0 35 86
+ 1.231801 1 4 ack 40 ------- 0 1.0 0.0 36 87
- 1.231801 1 4 ack 40 ------- 0 1.0 0.0 36 87
+ 1.231972 1 4 ack 40 ------- 0 1.0 0.0 37 88
- 1.231972 1 4 ack 40 ------- 0 1.0 0.0 37 88
+ 1.232143 1 4 ack 40 ------- 0 1.0 0.0 38 89
- 1.232143 1 4 ack 40 ------- 0 1.0 0.0 38 89
+ 1.232313 1 4 ack 40 ------- 0 1.0 0.0 39 90
- 1.232313 1 4 ack 40 ------- 0 1.0 0.0 39 90
+ 1.232484 1 4 ack 40 ------- 0 1.0 0.0 40 91
- 1.232484 1 4 ack 40 ------- 0 1.0 0.0 40 91
+ 1.232654 1 4 ack 40 ------- 0 1.0 0.0 41 92
- 1.232654 1 4 ack 40 ------- 0 1.0 0.0 41 92
+ 1.232825 1 4 ack 40 ------- 0 1.0 0.0 42 93
- 1.232825 1 4 ack 40 ------- 0 1.0 0.0 42 93
+ 1.232995 1 4 ack 40 ------- 0 1.0 0.0 43 94
- 1.232995 1 4 ack 40 ------- 0 1.0 0.0 43 94
+ 1.233166 1 4 ack 40 ------- 0 1.0 0.0 44 95
- 1.233166 1 4 ack 40 ------- 0 1.0 0.0 44 95
+ 1.233336 1 4 ack 40 ------- 0 1.0 0.0 45 96
- 1.233336 1 4 ack 40 ------- 0 1.0 0.0 45 96
+ 1.233507 1 4 ack 40 ------- 0 1.0 0.0 46 97
- 1.233507 1 4 ack 40 ------- 0 1.0 0.0 46 97
+ 1.233678 1 4 ack 40 ------- 0 1.0 0.0 47 98
- 1.233678 1 4 ack 40 ------- 0 1.0 0.0 47 98
+ 1.233848 1 4 ack 40 ------- 0 1.0 0.0 48 99
- 1.233848 1 4 ack 40 ------- 0 1.0 0.0 48 99
+ 1.234019 1 4 ack 40 ------- 0 1.0 0.0 49 100
- 1.234019 1 4 ack 40 ------- 0 1.0 0.0 49 100
+ 1.234189 1 4 ack 40 ------- 0 1.0 0.0 50 101
- 1.234189 1 4 ack 40 ------- 0 1.0 0.0 50 101
r 1.240963 4 0 ack 40 ------- 0 1.0 0.0 31 82
h 1.240963 0 4 tcp 1040 ------- 0 0.0 1.0 51 102
r 1.241133 4 0 ack 40 ------- 0 1.0 0.0 32 83
h 1.241133 0 4 tcp 1040 ------- 0 0.0 1.0 52 103
r 1.241304 4 0 ack 40 ------- 0 1.0 0.0 33 84
h 1.241304 0 4 tcp 1040 ------- 0 0.0 1.0 53 104
r 1.241475 4 0 ack 40 ------- 0 1.0 0.0 34 85
h 1.241475 0 4 tcp 1040 ------- 0 0.0 1.0 54 105
r 1.241645 4 0 ack 40 ------- 0 1.0 0.0 35 86
h 1.241645 0 4 tcp 1040 ------- 0 0.0 1.0 55 106
r 1.241816 4 0 ack 40 ------- 0 1.0 0.0 36 87
h 1.241816 0 4 tcp 1040 ------- 0 0.0 1.0 56 107
r 1.241986 4 0 ack 40 ------- 0 1.0 0.0 37 88
h 1.241986 0 4 tcp 1040 ------- 0 0.0 1.0 57 108
r 1.242157 4 0 ack 40 ------- 0 1.0 0.0 38 89
h 1.242157 0 4 tcp 1040 ------- 0 0.0 1.0 58 109
r 1.242327 4 0 ack 40 ------- 0 1.0 0.0 39 90
h 1.242327 0 4 tcp 1040 ------- 0 0.0 1.0 59 110
r 1.242498 4 0 ack 40 ------- 0 1.0 0.0 40 91
h 1.242498 0 4 tcp 1040 ------- 0 0.0 1.0 60 111
r 1.242668 4 0 ack 40 ------- 0 1.0 0.0 41 92
h 1.242668 0 4 tcp 1040 ------- 0 0.0 1.0 61 112
r 1.242839 4 0 ack 40 ------- 0 1.0 0.0 42 93
h 1.242839 0 4 tcp 1040 ------- 0 0.0 1.0 62 113
r 1.24301 4 0 ack 40 ------- 0 1.0 0.0 43 94
h 1.24301 0 4 tcp 1040 ------- 0 0.0 1.0 63 114
r 1.24318 4 0 ack 40 ------- 0 1.0 0.0 44 95
h 1.24318 0 4 tcp 1040 ------- 0 0.0 1.0 64 115
r 1.243351 4 0 ack 40 ------- 0 1.0 0.0 45 96
h 1.243351 0 4 tcp 1040 ------- 0 0.0 1.0 65 116
r 1.243521 4 0 ack 40 ------- 0 1.0 0.0 46 97
h 1.243521 0 4 tcp 1040 ------- 0 0.0 1.0 66 117
r 1.243692 4 0 ack 40 ------- 0 1.0 0.0 47 98
h 1.243692 0 4 tcp 1040 ------- 0 0.0 1.0 67 118
r 1.243862 4 0 ack 40 ------- 0 1.0 0.0 48 99
h 1.243862 0 4 tcp 1040 ------- 0 0.0 1.0 68 119
r 1.244033 4 0 ack 40 ------- 0 1.0 0.0 49 100
h 1.244033 0 4 tcp 1040 ------- 0 0.0 1.0 69 120
r 1.244204 4 0 ack 40 ------- 0 1.0 0.0 50 101
h 1.244204 0 4 tcp 1040 ------- 0 0.0 1.0 70 121
+ 1.250963 0 4 tcp 1040 ------- 0 0.0 1.0 51 102
- 1.250963 0 4 tcp 1040 ------- 0 0.0 1.0 51 102
+ 1.251133 0 4 tcp 1040 ------- 0 0.0 1.0 52 103
- 1.251133 0 4 tcp 1040 ------- 0 0.0 1.0 52 103
+ 1.251304 0 4 tcp 1040 ------- 0 0.0 1.0 53 104
- 1.251304 0 4 tcp 1040 ------- 0 0.0 1.0 53 104
+ 1.251475 0 4 tcp 1040 ------- 0 0.0 1.0 54 105
- 1.251475 0 4 tcp 1040 ------- 0 0.0 1.0 54 105
+ 1.251645 0 4 tcp 1040 ------- 0 0.0 1.0 55 106
- 1.251645 0 4 tcp 1040 ------- 0 0.0 1.0 55 106
+ 1.251816 0 4 tcp 1040 ------- 0 0.0 1.0 56 107
- 1.251816 0 4 tcp 1040 ------- 0 0.0 1.0 56 107
+ 1.251986 0 4 tcp 1040 ------- 0 0.0 1.0 57 108
- 1.251986 0 4 tcp 1040 ------- 0 0.0 1.0 57 108
+ 1.252157 0 4 tcp 1040 ------- 0 0.0 1.0 58 109
- 1.252157 0 4 tcp 1040 ------- 0 0.0 1.0 58 109
+ 1.252327 0 4 tcp 1040 ------- 0 0.0 1.0 59 110
- 1.252327 0 4 tcp 1040 ------- 0 0.0 1.0 59 110
+ 1.252498 0 4 tcp 1040 ------- 0 0.0 1.0 60 111
- 1.252498 0 4 tcp 1040 ------- 0 0.0 1.0 60 111
+ 1.252668 0 4 tcp 1040 ------- 0 0.0 1.0 61 112
- 1.252668 0 4 tcp 1040 ------- 0 0.0 1.0 61 112
+ 1.252839 0 4 tcp 1040 ------- 0 0.0 1.0 62 113
- 1.252839 0 4 tcp 1040 ------- 0 0.0 1.0 62 113
+ 1.25301 0 4 tcp 1040 ------- 0 0.0 1.0 63 114
- 1.25301 0 4 tcp 1040 ------- 0 0.0 1.0 63 114
+ 1.25318 0 4 tcp 1040 ------- 0 0.0 1.0 64 115
- 1.25318 0 4 tcp 1040 ------- 0 0.0 1.0 64 115
+ 1.253351 0 4 tcp 1040 ------- 0 0.0 1.0 65 116
- 1.253351 0 4 tcp 1040 ------- 0 0.0 1.0 65 116
+ 1.253521 0 4 tcp 1040 ------- 0 0.0 1.0 66 117
- 1.253521 0 4 tcp 1040 ------- 0 0.0 1.0 66 117
+ 1.253692 0 4 tcp 1040 ------- 0 0.0 1.0 67 118
- 1.253692 0 4 tcp 1040 ------- 0 0.0 1.0 67 118
+ 1.253862 0 4 tcp 1040 ------- 0 0.0 1.0 68 119
- 1.253862 0 4 tcp 1040 ------- 0 0.0 1.0 68 119
+ 1.254033 0 4 tcp 1040 ------- 0 0.0 1.0 69 120
- 1.254033 0 4 tcp 1040 ------- 0 0.0 1.0 69 120
+ 1.254204 0 4 tcp 1040 ------- 0 0.0 1.0 70 121
- 1.254204 0 4 tcp 1040 ------- 0 0.0 1.0 70 121
r 1.261136 4 1 tcp 1040 ------- 0 0.0 1.0 51 102
h 1.261136 1 4 ack 40 ------- 0 1.0 0.0 51 122
r 1.261306 4 1 tcp 1040 ------- 0 0.0 1.0 52 103
h 1.261306 1 4 ack 40 ------- 0 1.0 0.0 52 123
r 1.261477 4 1 tcp 1040 ------- 0 0.0 1.0 53 104
h 1.261477 1 4 ack 40 ------- 0 1.0 0.0 53 124
r 1.261647 4 1 tcp 1040 ------- 0 0.0 1.0 54 105
h 1.261647 1 4 ack 40 ------- 0 1.0 0.0 54 125
r 1.261818 4 1 tcp 1040 ------- 0 0.0 1.0 55 106
h 1.261818 1 4 ack 40 ------- 0 1.0 0.0 55 126
r 1.261988 4 1 tcp 1040 ------- 0 0.0 1.0 56 107
h 1.261988 1 4 ack 40 ------- 0 1.0 0.0 56 127
r 1.262159 4 1 tcp 1040 ------- 0 0.0 1.0 57 108
h 1.262159 1 4 ack 40 ------- 0 1.0 0.0 57 128
r 1.262329 4 1 tcp 1040 ------- 0 0.0 1.0 58 109
h 1.262329 1 4 ack 40 ------- 0 1.0 0.0 58 129
r 1.2625 4 1 tcp 1040 ------- 0 0.0 1.0 59 110
h 1.2625 1 4 ack 40 ------- 0 1.0 0.0 59 130
r 1.262671 4 1 tcp 1040 ------- 0 0.0 1.0 60 111
h 1.262671 1 4 ack 40 ------- 0 1.0 0.0 60 131
r 1.262841 4 1 tcp 1040 ------- 0 0.0 1.0 61 112
h 1.262841 1 4 ack 40 ------- 0 1.0 0.0 61 132
r 1.263012 4 1 tcp 1040 ------- 0 0.0 1.0 62 113
h 1.263012 1 4 ack 40 ------- 0 1.0 0.0 62 133
r 1.263182 4 1 tcp 1040 ------- 0 0.0 1.0 63 114
h 1.263182 1 4 ack 40 ------- 0 1.0 0.0 63 134
r 1.263353 4 1 tcp 1040 ------- 0 0.0 1.0 64 115
h 1.263353 1 4 ack 40 ------- 0 1.0 0.0 64 135
r 1.263523 4 1 tcp 1040 ------- 0 0.0 1.0 65 116
h 1.263523 1 4 ack 40 ------- 0 1.0 0.0 65 136
r 1.263694 4 1 tcp 1040 ------- 0 0.0 1.0 66 117
h 1.263694 1 4 ack 40 ------- 0 1.0 0.0 66 137
r 1.263864 4 1 tcp 1040 ------- 0 0.0 1.0 67 118
h 1.263864 1 4 ack 40 ------- 0 1.0 0.0 67 138
r 1.264035 4 1 tcp 1040 ------- 0 0.0 1.0 68 119
h 1.264035 1 4 ack 40 ------- 0 1.0 0.0 68 139
r 1.264206 4 1 tcp 1040 ------- 0 0.0 1.0 69 120
h 1.264206 1 4 ack 40 ------- 0 1.0 0.0 69 140
r 1.264376 4 1 tcp 1040 ------- 0 0.0 1.0 70 121
h 1.264376 1 4 ack 40 ------- 0 1.0 0.0 70 141
+ 1.271136 1 4 ack 40 ------- 0 1.0 0.0 51 122
- 1.271136 1 4 ack 40 ------- 0 1.0 0.0 51 122
+ 1.271306 1 4 ack 40 ------- 0 1.0 0.0 52 123
- 1.271306 1 4 ack 40 ------- 0 1.0 0.0 52 123
+ 1.271477 1 4 ack 40 ------- 0 1.0 0.0 53 124
- 1.271477 1 4 ack 40 ------- 0 1.0 0.0 53 124
+ 1.271647 1 4 ack 40 ------- 0 1.0 0.0 54 125
- 1.271647 1 4 ack 40 ------- 0 1.0 0.0 54 125
+ 1.271818 1 4 ack 40 ------- 0 1.0 0.0 55 126
- 1.271818 1 4 ack 40 ------- 0 1.0 0.0 55 126
+ 1.271988 1 4 ack 40 ------- 0 1.0 0.0 56 127
- 1.271988 1 4 ack 40 ------- 0 1.0 0.0 56 127
+ 1.272159 1 4 ack 40 ------- 0 1.0 0.0 57 128
- 1.272159 1 4 ack 40 ------- 0 1.0 0.0 57 128
+ 1.272329 1 4 ack 40 ------- 0 1.0 0.0 58 129
- 1.272329 1 4 ack 40 ------- 0 1.0 0.0 58 129
+ 1.2725 1 4 ack 40 ------- 0 1.0 0.0 59 130
- 1.2725 1 4 ack 40 ------- 0 1.0 0.0 59 130
+ 1.272671 1 4 ack 40 ------- 0 1.0 0.0 60 131
- 1.272671 1 4 ack 40 ------- 0 1.0 0.0 60 131
+ 1.272841 1 4 ack 40 ------- 0 1.0 0.0 61 132
- 1.272841 1 4 ack 40 ------- 0 1.0 0.0 61 132
+ 1.273012 1 4 ack 40 ------- 0 1.0 0.0 62 133
- 1.273012 1 4 ack 40 ------- 0 1.0 0.0 62 133
+ 1.273182 1 4 ack 40 ------- 0 1.0 0.0 63 134
- 1.273182 1 4 ack 40 ------- 0 1.0 0.0 63 134
+ 1.273353 1 4 ack 40 ------- 0 1.0 0.0 64 135
- 1.273353 1 4 ack 40 ------- 0 1.0 0.0 64 135
+ 1.273523 1 4 ack 40 ------- 0 1.0 0.0 65 136
- 1.273523 1 4 ack 40 ------- 0 1.0 0.0 65 136
+ 1.273694 1 4 ack 40 ------- 0 1.0 0.0 66 137
- 1.273694 1 4 ack 40 ------- 0 1.0 0.0 66 137
+ 1.273864 1 4 ack 40 ------- 0 1.0 0.0 67 138
- 1.273864 1 4 ack 40 ------- 0 1.0 0.0 67 138
+ 1.274035 1 4 ack 40 ------- 0 1.0 0.0 68 139
- 1.274035 1 4 ack 40 ------- 0 1.0 0.0 68 139
+ 1.274206 1 4 ack 40 ------- 0 1.0 0.0 69 140
- 1.274206 1 4 ack 40 ------- 0 1.0 0.0 69 140
+ 1.274376 1 4 ack 40 ------- 0 1.0 0.0 70 141
- 1.274376 1 4 ack 40 ------- 0 1.0 0.0 70 141
r 1.28115 4 0 ack 40 ------- 0 1.0 0.0 51 122
h 1.28115 0 4 tcp 1040 ------- 0 0.0 1.0 71 142
r 1.28132 4 0 ack 40 ------- 0 1.0 0.0 52 123
h 1.28132 0 4 tcp 1040 ------- 0 0.0 1.0 72 143
r 1.281491 4 0 ack 40 ------- 0 1.0 0.0 53 124
h 1.281491 0 4 tcp 1040 ------- 0 0.0 1.0 73 144
r 1.281661 4 0 ack 40 ------- 0 1.0 0.0 54 125
h 1.281661 0 4 tcp 1040 ------- 0 0.0 1.0 74 145
r 1.281832 4 0 ack 40 ------- 0 1.0 0.0 55 126
h 1.281832 0 4 tcp 1040 ------- 0 0.0 1.0 75 146
r 1.282003 4 0 ack 40 ------- 0 1.0 0.0 56 127
h 1.282003 0 4 tcp 1040 ------- 0 0.0 1.0 76 147
r 1.282173 4 0 ack 40 ------- 0 1.0 0.0 57 128
h 1.282173 0 4 tcp 1040 ------- 0 0.0 1.0 77 148
r 1.282344 4 0 ack 40 ------- 0 1.0 0.0 58 129
h 1.282344 0 4 tcp 1040 ------- 0 0.0 1.0 78 149
r 1.282514 4 0 ack 40 ------- 0 1.0 0.0 59 130
h 1.282514 0 4 tcp 1040 ------- 0 0.0 1.0 79 150
r 1.282685 4 0 ack 40 ------- 0 1.0 0.0 60 131
h 1.282685 0 4 tcp 1040 ------- 0 0.0 1.0 80 151
r 1.282855 4 0 ack 40 ------- 0 1.0 0.0 61 132
h 1.282855 0 4 tcp 1040 ------- 0 0.0 1.0 81 152
r 1.283026 4 0 ack 40 ------- 0 1.0 0.0 62 133
h 1.283026 0 4 tcp 1040 ------- 0 0.0 1.0 82 153
r 1.283196 4 0 ack 40 ------- 0 1.0 0.0 63 134
h 1.283196 0 4 tcp 1040 ------- 0 0.0 1.0 83 154
r 1.283367 4 0 ack 40 ------- 0 1.0 0.0 64 135
h 1.283367 0 4 tcp 1040 ------- 0 0.0 1.0 84 155
r 1.283538 4 0 ack 40 ------- 0 1.0 0.0 65 136
h 1.283538 0 4 tcp 1040 ------- 0 0.0 1.0 85 156
r 1.283708 4 0 ack 40 ------- 0 1.0 0.0 66 137
h 1.283708 0 4 tcp 1040 ------- 0 0.0 1.0 86 157
r 1.283879 4 0 ack 40 ------- 0 1.0 0.0 67 138
h 1.283879 0 4 tcp 1040 ------- 0 0.0 1.0 87 158
r 1.284049 4 0 ack 40 ------- 0 1.0 0.0 68 139
h 1.284049 0 4 tcp 1040 ------- 0 0.0 1.0 88 159
r 1.28422 4 0 ack 40 ------- 0 1.0 0.0 69 140
h 1.28422 0 4 tcp 1040 ------- 0 0.0 1.0 89 160
r 1.28439 4 0 ack 40 ------- 0 1.0 0.0 70 141
h 1.28439 0 4 tcp 1040 ------- 0 0.0 1.0 90 161
+ 1.29115 0 4 tcp 1040 ------- 0 0.0 1.0 71 142
- 1.29115 0 4 tcp 1040 ------- 0 0.0 1.0 71 142
+ 1.29132 0 4 tcp 1040 ------- 0 0.0 1.0 72 143
- 1.29132 0 4 tcp 1040 ------- 0 0.0 1.0 72 143
+ 1.291491 0 4 tcp 1040 ------- 0 0.0 1.0 73 144
- 1.291491 0 4 tcp 1040 ------- 0 0.0 1.0 73 144
+ 1.291661 0 4 tcp 1040 ------- 0 0.0 1.0 74 145
- 1.291661 0 4 tcp 1040 ------- 0 0.0 1.0 74 145
+ 1.291832 0 4 tcp 1040 ------- 0 0.0 1.0 75 146
- 1.291832 0 4 tcp 1040 ------- 0 0.0 1.0 75 146
+ 1.292003 0 4 tcp 1040 ------- 0 0.0 1.0 76 147
- 1.292003 0 4 tcp 1040 ------- 0 0.0 1.0 76 147
+ 1.292173 0 4 tcp 1040 ------- 0 0.0 1.0 77 148
- 1.292173 0 4 tcp 1040 ------- 0 0.0 1.0 77 148
+ 1.292344 0 4 tcp 1040 ------- 0 0.0 1.0 78 149
- 1.292344 0 4 tcp 1040 ------- 0 0.0 1.0 78 149
+ 1.292514 0 4 tcp 1040 ------- 0 0.0 1.0 79 150
- 1.292514 0 4 tcp 1040 ------- 0 0.0 1.0 79 150
+ 1.292685 0 4 tcp 1040 ------- 0 0.0 1.0 80 151
- 1.292685 0 4 tcp 1040 ------- 0 0.0 1.0 80 151
+ 1.292855 0 4 tcp 1040 ------- 0 0.0 1.0 81 152
- 1.292855 0 4 tcp 1040 ------- 0 0.0 1.0 81 152
+ 1.293026 0 4 tcp 1040 ------- 0 0.0 1.0 82 153
- 1.293026 0 4 tcp 1040 ------- 0 0.0 1.0 82 153
+ 1.293196 0 4 tcp 1040 ------- 0 0.0 1.0 83 154
- 1.293196 0 4 tcp 1040 ------- 0 0.0 1.0 83 154
+ 1.293367 0 4 tcp 1040 ------- 0 0.0 1.0 84 155
- 1.293367 0 4 tcp 1040 ------- 0 0.0 1.0 84 155
+ 1.293538 0 4 tcp 1040 ------- 0 0.0 1.0 85 156
- 1.293538 0 4 tcp 1040 ------- 0 0.0 1.0 85 156
+ 1.293708 0 4 tcp 1040 ------- 0 0.0 1.0 86 157
- 1.293708 0 4 tcp 1040 ------- 0 0.0 1.0 86 157
+ 1.293879 0 4 tcp 1040 ------- 0 0.0 1.0 87 158
- 1.293879 0 4 tcp 1040 ------- 0 0.0 1.0 87 158
+ 1.294049 0 4 tcp 1040 ------- 0 0.0 1.0 88 159
- 1.294049 0 4 tcp 1040 ------- 0 0.0 1.0 88 159
+ 1.29422 0 4 tcp 1040 ------- 0 0.0 1.0 89 160
- 1.29422 0 4 tcp 1040 ------- 0 0.0 1.0 89 160
+ 1.29439 0 4 tcp 1040 ------- 0 0.0 1.0 90 161
- 1.29439 0 4 tcp 1040 ------- 0 0.0 1.0 90 161
r 1.301322 4 1 tcp 1040 ------- 0 0.0 1.0 71 142
h 1.301322 1 4 ack 40 ------- 0 1.0 0.0 71 162
r 1.301493 4 1 tcp 1040 ------- 0 0.0 1.0 72 143
h 1.301493 1 4 ack 40 ------- 0 1.0 0.0 72 163
r 1.301664 4 1 tcp 1040 ------- 0 0.0 1.0 73 144
h 1.301664 1 4 ack 40 ------- 0 1.0 0.0 73 164
r 1.301834 4 1 tcp 1040 ------- 0 0.0 1.0 74 145
h 1.301834 1 4 ack 40 ------- 0 1.0 0.0 74 165