n -t 0 -s 0 -S DLABEL -l "src1" -L ""
n -t 0 -s 1 -S DLABEL -l "dest1" -L ""
n -t 0 -s 2 -S DLABEL -l "src2" -L ""
n -t 0 -s 3 -S DLABEL -l "dest2" -L ""
V -t * -v 1.0a5 -a 0
A -t * -n 1 -p 0 -o 0x7fffffff -c 30 -a 1
A -t * -h 1 -m 1073741823 -s 0
n -t * -a 0 -s 0 -S UP -v circle -c black -i black
n -t * -a 1 -s 1 -S UP -v square -c black -i black
n -t * -a 2 -s 2 -S UP -v circle -c black -i black
n -t * -a 3 -s 3 -S UP -v square -c black -i black
X -t * -n 4 -r 50.0Mb -D 10ms -o left
L -t * -s 4 -d 0 -o up
L -t * -s 4 -d 1 -o down
L -t * -s 4 -d 2 -o up
L -t * -s 4 -d 3 -o down
h -t 1 -s 0 -d 4 -p tcp -e 40 -c 0 -i 0 -a 0 -x {0.0 1.0 0 ------- null}
+ -t 1.01 -s 0 -d 4 -p tcp -e 40 -c 0 -i 0 -a 0 -x {0.0 1.0 0 ------- null}
- -t 1.01 -s 0 -d 4 -p tcp -e 40 -c 0 -i 0 -a 0 -x {0.0 1.0 0 ------- null}
h -t 1.01 -s 0 -d 4 -p tcp -e 40 -c 0 -i 0 -a 0 -x {0.0 1.0 -1 ------- null}
r -t 1.02001424 -s 4 -d 1 -p tcp -e 40 -c 0 -i 0 -a 0 -x {0.0 1.0 0 ------- null}
h -t 1.02001424 -s 1 -d 4 -p ack -e 40 -c 0 -i 1 -a 0 -x {1.0 0.0 0 ------- null}
+ -t 1.03001424 -s 1 -d 4 -p ack -e 40 -c 0 -i 1 -a 0 -x {1.0 0.0 0 ------- null}
- -t 1.03001424 -s 1 -d 4 -p ack -e 40 -c 0 -i 1 -a 0 -x {1.0 0.0 0 ------- null}
h -t 1.03001424 -s 1 -d 4 -p ack -e 40 -c 0 -i 1 -a 0 -x {1.0 0.0 -1 ------- null}
r -t 1.04002848 -s 4 -d 0 -p ack -e 40 -c 0 -i 1 -a 0 -x {1.0 0.0 0 ------- null}
h -t 1.04002848 -s 0 -d 4 -p tcp -e 1040 -c 0 -i 2 -a 0 -x {0.0 1.0 1 ------- null}
h -t 1.04002848 -s 0 -d 4 -p tcp -e 1040 -c 0 -i 3 -a 0 -x {0.0 1.0 2 ------- null}
+ -t 1.05002848 -s 0 -d 4 -p tcp -e 1040 -c 0 -i 2 -a 0 -x {0.0 1.0 1 ------- null}
- -t 1.05002848 -s 0 -d 4 -p tcp -e 1040 -c 0 -i 2 -a 0 -x {0.0 1.0 1 ------- null}
h -t 1.05002848 -s 0 -d 4 -p tcp -e 1040 -c 0 -i 2 -a 0 -x {0.0 1.0 -1 ------- null}
+ -t 1.05002848 -s 0 -d 4 -p tcp -e 1040 -c 0 -i 3 -a 0 -x {0.0 1.0 2 ------- null}
- -t 1.05019904 -s 0 -d 4 -p tcp -e 1040 -c 0 -i 3 -a 0 -x {0.0 1.0 2 ------- null}
h -t 1.05019904 -s 0 -d 4 -p tcp -e 1040 -c 0 -i 3 -a 0 -x {0.0 1.0 -1 ------- null}
r -t 1.06020112 -s 4 -d 1 -p tcp -e 1040 -c 0 -i 2 -a 0 -x {0.0 1.0 1 ------- null}
h -t 1.06020112 -s 1 -d 4 -p ack -e 40 -c 0 -i 4 -a 0 -x {1.0 0.0 1 ------- null}
r -t 1.06037168 -s 4 -d 1 -p tcp -e 1040 -c 0 -i 3 -a 0 -x {0.0 1.0 2 ------- null}
h -t 1.06037168 -s 1 -d 4 -p ack -e 40 -c 0 -i 5 -a 0 -x {1.0 0.0 2 ------- null}
+ -t 1.07020112 -s 1 -d 4 -p ack -e 40 -c 0 -i 4 -a 0 -x {1.0 0.0 1 ------- null}
- -t 1.07020112 -s 1 -d 4 -p ack -e 40 -c 0 -i 4 -a 0 -x {1.0 0.0 1 ------- null}
h -t 1.07020112 -s 1 -d 4 -p ack -e 40 -c 0 -i 4 -a 0 -x {1.0 0.0 -1 ------- null}
+ -t 1.07037168 -s 1 -d 4 -p ack -e 40 -c 0 -i 5 -a 0 -x {1.0 0.0 2 ------- null}
- -t 1.07037168 -s 1 -d 4 -p ack -e 40 -c 0 -i 5 -a 0 -x {1.0 0.0 2 ------- null}
h -t 1.07037168 -s 1 -d 4 -p ack -e 40 -c 0 -i 5 -a 0 -x {1.0 0.0 -1 ------- null}
r -t 1.08021536 -s 4 -d 0 -p ack -e 40 -c 0 -i 4 -a 0 -x {1.0 0.0 1 ------- null}
h -t 1.08021536 -s 0 -d 4 -p tcp -e 1040 -c 0 -i 6 -a 0 -x {0.0 1.0 3 ------- null}
h -t 1.08021536 -s 0 -d 4 -p tcp -e 1040 -c 0 -i 7 -a 0 -x {0.0 1.0 4 ------- null}
r -t 1.08038592 -s 4 -d 0 -p ack -e 40 -c 0 -i 5 -a 0 -x {1.0 0.0 2 ------- null}
h -t 1.08038592 -s 0 -d 4 -p tcp -e 1040 -c 0 -i 8 -a 0 -x {0.0 1.0 5 ------- null}
h -t 1.08038592 -s 0 -d 4 -p tcp -e 1040 -c 0 -i 9 -a 0 -x {0.0 1.0 6 ------- null}
+ -t 1.09021536 -s 0 -d 4 -p tcp -e 1040 -c 0 -i 6 -a 0 -x {0.0 1.0 3 ------- null}
- -t 1.09021536 -s 0 -d 4 -p tcp -e 1040 -c 0 -i 6 -a 0 -x {0.0 1.0 3 ------- null}
h -t 1.09021536 -s 0 -d 4 -p tcp -e 1040 -c 0 -i 6 -a 0 -x {0.0 1.0 -1 ------- null}
+ -t 1.09021536 -s 0 -d 4 -p tcp -e 1040 -c 0 -i 7 -a 0 -x {0.0 1.0 4 ------- null}
+ -t 1.09038592 -s 0 -d 4 -p tcp -e 1040 -c 0 -i 8 -a 0 -x {0.0 1.0 5 ------- null}
+ -t 1.09038592 -s 0 -d 4 -p tcp -e 1040 -c 0 -i 9 -a 0 -x {0.0 1.0 6 ------- null}
- -t 1.09038592 -s 0 -d 4 -p tcp -e 1040 -c 0 -i 7 -a 0 -x {0.0 1.0 4 ------- null}
h -t 1.09038592 -s 0 -d 4 -p tcp -e 1040 -c 0 -i 7 -a 0 -x {0.0 1.0 -1 ------- null}
- -t 1.09055648 -s 0 -d 4 -p tcp -e 1040 -c 0 -i 8 -a 0 -x {0.0 1.0 5 ------- null}
h -t 1.09055648 -s 0 -d 4 -p tcp -e 1040 -c 0 -i 8 -a 0 -x {0.0 1.0 -1 ------- null}
- -t 1.09072704 -s 0 -d 4 -p tcp -e 1040 -c 0 -i 9 -a 0 -x {0.0 1.0 6 ------- null}
h -t 1.09072704 -s 0 -d 4 -p tcp -e 1040 -c 0 -i 9 -a 0 -x {0.0 1.0 -1 ------- null}
r -t 1.100388 -s 4 -d 1 -p tcp -e 1040 -c 0 -i 6 -a 0 -x {0.0 1.0 3 ------- null}
h -t 1.100388 -s 1 -d 4 -p ack -e 40 -c 0 -i 10 -a 0 -x {1.0 0.0 3 ------- null}
r -t 1.10055856 -s 4 -d 1 -p tcp -e 1040 -c 0 -i 7 -a 0 -x {0.0 1.0 4 ------- null}
h -t 1.10055856 -s 1 -d 4 -p ack -e 40 -c 0 -i 11 -a 0 -x {1.0 0.0 4 ------- null}
r -t 1.10072912 -s 4 -d 1 -p tcp -e 1040 -c 0 -i 8 -a 0 -x {0.0 1.0 5 ------- null}
h -t 1.10072912 -s 1 -d 4 -p ack -e 40 -c 0 -i 12 -a 0 -x {1.0 0.0 5 ------- null}
r -t 1.10089968 -s 4 -d 1 -p tcp -e 1040 -c 0 -i 9 -a 0 -x {0.0 1.0 6 ------- null}
h -t 1.10089968 -s 1 -d 4 -p ack -e 40 -c 0 -i 13 -a 0 -x {1.0 0.0 6 ------- null}
+ -t 1.110388 -s 1 -d 4 -p ack -e 40 -c 0 -i 10 -a 0 -x {1.0 0.0 3 ------- null}
- -t 1.110388 -s 1 -d 4 -p ack -e 40 -c 0 -i 10 -a 0 -x {1.0 0.0 3 ------- null}
h -t 1.110388 -s 1 -d 4 -p ack -e 40 -c 0 -i 10 -a 0 -x {1.0 0.0 -1 ------- null}
+ -t 1.11055856 -s 1 -d 4 -p ack -e 40 -c 0 -i 11 -a 0 -x {1.0 0.0 4 ------- null}
- -t 1.11055856 -s 1 -d 4 -p ack -e 40 -c 0 -i 11 -a 0 -x {1.0 0.0 4 ------- null}
h -t 1.11055856 -s 1 -d 4 -p ack -e 40 -c 0 -i 11 -a 0 -x {1.0 0.0 -1 ------- null}
+ -t 1.11072912 -s 1 -d 4 -p ack -e 40 -c 0 -i 12 -a 0 -x {1.0 0.0 5 ------- null}
- -t 1.11072912 -s 1 -d 4 -p ack -e 40 -c 0 -i 12 -a 0 -x {1.0 0.0 5 ------- null}
h -t 1.11072912 -s 1 -d 4 -p ack -e 40 -c 0 -i 12 -a 0 -x {1.0 0.0 -1 ------- null}
+ -t 1.11089968 -s 1 -d 4 -p ack -e 40 -c 0 -i 13 -a 0 -x {1.0 0.0 6 ------- null}
- -t 1.11089968 -s 1 -d 4 -p ack -e 40 -c 0 -i 13 -a 0 -x {1.0 0.0 6 ------- null}
h -t 1.11089968 -s 1 -d 4 -p ack -e 40 -c 0 -i 13 -a 0 -x {1.0 0.0 -1 ------- null}
r -t 1.12040224 -s 4 -d 0 -p ack -e 40 -c 0 -i 10 -a 0 -x {1.0 0.0 3 ------- null}
h -t 1.12040224 -s 0 -d 4 -p tcp -e 1040 -c 0 -i 14 -a 0 -x {0.0 1.0 7 ------- null}
h -t 1.12040224 -s 0 -d 4 -p tcp -e 1040 -c 0 -i 15 -a 0 -x {0.0 1.0 8 ------- null}
r -t 1.1205728 -s 4 -d 0 -p ack -e 40 -c 0 -i 11 -a 0 -x {1.0 0.0 4 ------- null}
h -t 1.1205728 -s 0 -d 4 -p tcp -e 1040 -c 0 -i 16 -a 0 -x {0.0 1.0 9 ------- null}
h -t 1.1205728 -s 0 -d 4 -p tcp -e 1040 -c 0 -i 17 -a 0 -x {0.0 1.0 10 ------- null}
r -t 1.12074336 -s 4 -d 0 -p ack -e 40 -c 0 -i 12 -a 0 -x {1.0 0.0 5 ------- null}
h -t 1.12074336 -s 0 -d 4 -p tcp -e 1040 -c 0 -i 18 -a 0 -x {0.0 1.0 11 ------- null}
h -t 1.12074336 -s 0 -d 4 -p tcp -e 1040 -c 0 -i 19 -a 0 -x {0.0 1.0 12 ------- null}
r -t 1.12091392 -s 4 -d 0 -p ack -e 40 -c 0 -i 13 -a 0 -x {1.0 0.0 6 ------- null}
h -t 1.12091392 -s 0 -d 4 -p tcp -e 1040 -c 0 -i 20 -a 0 -x {0.0 1.0 13 ------- null}
h -t 1.12091392 -s 0 -d 4 -p tcp -e 1040 -c 0 -i 21 -a 0 -x {0.0 1.0 14 ------- null}
+ -t 1.13040224 -s 0 -d 4 -p tcp -e 1040 -c 0 -i 14 -a 0 -x {0.0 1.0 7 ------- null}
- -t 1.13040224 -s 0 -d 4 -p tcp -e 1040 -c 0 -i 14 -a 0 -x {0.0 1.0 7 ------- null}
h -t 1.13040224 -s 0 -d 4 -p tcp -e 1040 -c 0 -i 14 -a 0 -x {0.0 1.0 -1 ------- null}
+ -t 1.13040224 -s 0 -d 4 -p tcp -e 1040 -c 0 -i 15 -a 0 -x {0.0 1.0 8 ------- null}
+ -t 1.1305728 -s 0 -d 4 -p tcp -e 1040 -c 0 -i 16 -a 0 -x {0.0 1.0 9 ------- null}
+ -t 1.1305728 -s 0 -d 4 -p tcp -e 1040 -c 0 -i 17 -a 0 -x {0.0 1.0 10 ------- null}
- -t 1.1305728 -s 0 -d 4 -p tcp -e 1040 -c 0 -i 15 -a 0 -x {0.0 1.0 8 ------- null}
h -t 1.1305728 -s 0 -d 4 -p tcp -e 1040 -c 0 -i 15 -a 0 -x {0.0 1.0 -1 ------- null}
+ -t 1.13074336 -s 0 -d 4 -p tcp -e 1040 -c 0 -i 18 -a 0 -x {0.0 1.0 11 ------- null}
+ -t 1.13074336 -s 0 -d 4 -p tcp -e 1040 -c 0 -i 19 -a 0 -x {0.0 1.0 12 ------- null}
- -t 1.13074336 -s 0 -d 4 -p tcp -e 1040 -c 0 -i 16 -a 0 -x {0.0 1.0 9 ------- null}
h -t 1.13074336 -s 0 -d 4 -p tcp -e 1040 -c 0 -i 16 -a 0 -x {0.0 1.0 -1 ------- null}
+ -t 1.13091392 -s 0 -d 4 -p tcp -e 1040 -c 0 -i 20 -a 0 -x {0.0 1.0 13 ------- null}
+ -t 1.13091392 -s 0 -d 4 -p tcp -e 1040 -c 0 -i 21 -a 0 -x {0.0 1.0 14 ------- null}
- -t 1.13091392 -s 0 -d 4 -p tcp -e 1040 -c 0 -i 17 -a 0 -x {0.0 1.0 10 ------- null}
h -t 1.13091392 -s 0 -d 4 -p tcp -e 1040 -c 0 -i 17 -a 0 -x {0.0 1.0 -1 ------- null}
- -t 1.13108448 -s 0 -d 4 -p tcp -e 1040 -c 0 -i 18 -a 0 -x {0.0 1.0 11 ------- null}
h -t 1.13108448 -s 0 -d 4 -p tcp -e 1040 -c 0 -i 18 -a 0 -x {0.0 1.0 -1 ------- null}
- -t 1.13125504 -s 0 -d 4 -p tcp -e 1040 -c 0 -i 19 -a 0 -x {0.0 1.0 12 ------- null}
h -t 1.13125504 -s 0 -d 4 -p tcp -e 1040 -c 0 -i 19 -a 0 -x {0.0 1.0 -1 ------- null}
- -t 1.1314256 -s 0 -d 4 -p tcp -e 1040 -c 0 -i 20 -a 0 -x {0.0 1.0 13 ------- null}
h -t 1.1314256 -s 0 -d 4 -p tcp -e 1040 -c 0 -i 20 -a 0 -x {0.0 1.0 -1 ------- null}
- -t 1.13159616 -s 0 -d 4 -p tcp -e 1040 -c 0 -i 21 -a 0 -x {0.0 1.0 14 ------- null}
h -t 1.13159616 -s 0 -d 4 -p tcp -e 1040 -c 0 -i 21 -a 0 -x {0.0 1.0 -1 ------- null}
r -t 1.14057488 -s 4 -d 1 -p tcp -e 1040 -c 0 -i 14 -a 0 -x {0.0 1.0 7 ------- null}
h -t 1.14057488 -s 1 -d 4 -p ack -e 40 -c 0 -i 22 -a 0 -x {1.0 0.0 7 ------- null}
r -t 1.14074544 -s 4 -d 1 -p tcp -e 1040 -c 0 -i 15 -a 0 -x {0.0 1.0 8 ------- null}
h -t 1.14074544 -s 1 -d 4 -p ack -e 40 -c 0 -i 23 -a 0 -x {1.0 0.0 8 ------- null}
r -t 1.140916 -s 4 -d 1 -p tcp -e 1040 -c 0 -i 16 -a 0 -x {0.0 1.0 9 ------- null}
h -t 1.140916 -s 1 -d 4 -p ack -e 40 -c 0 -i 24 -a 0 -x {1.0 0.0 9 ------- null}
r -t 1.14108656 -s 4 -d 1 -p tcp -e 1040 -c 0 -i 17 -a 0 -x {0.0 1.0 10 ------- null}
h -t 1.14108656 -s 1 -d 4 -p ack -e 40 -c 0 -i 25 -a 0 -x {1.0 0.0 10 ------- null}
r -t 1.14125712 -s 4 -d 1 -p tcp -e 1040 -c 0 -i 18 -a 0 -x {0.0 1.0 11 ------- null}
h -t 1.14125712 -s 1 -d 4 -p ack -e 40 -c 0 -i 26 -a 0 -x {1.0 0.0 11 ------- null}
r -t 1.14142768 -s 4 -d 1 -p tcp -e 1040 -c 0 -i 19 -a 0 -x {0.0 1.0 12 ------- null}
h -t 1.14142768 -s 1 -d 4 -p ack -e 40 -c 0 -i 27 -a 0 -x {1.0 0.0 12 ------- null}
r -t 1.14159824 -s 4 -d 1 -p tcp -e 1040 -c 0 -i 20 -a 0 -x {0.0 1.0 13 ------- null}
h -t 1.14159824 -s 1 -d 4 -p ack -e 40 -c 0 -i 28 -a 0 -x {1.0 0.0 13 ------- null}
r -t 1.1417688 -s 4 -d 1 -p tcp -e 1040 -c 0 -i 21 -a 0 -x {0.0 1.0 14 ------- null}
h -t 1.1417688 -s 1 -d 4 -p ack -e 40 -c 0 -i 29 -a 0 -x {1.0 0.0 14 ------- null}
+ -t 1.15057488 -s 1 -d 4 -p ack -e 40 -c 0 -i 22 -a 0 -x {1.0 0.0 7 ------- null}
- -t 1.15057488 -s 1 -d 4 -p ack -e 40 -c 0 -i 22 -a 0 -x {1.0 0.0 7 ------- null}
h -t 1.15057488 -s 1 -d 4 -p ack -e 40 -c 0 -i 22 -a 0 -x {1.0 0.0 -1 ------- null}
+ -t 1.15074544 -s 1 -d 4 -p ack -e 40 -c 0 -i 23 -a 0 -x {1.0 0.0 8 ------- null}
- -t 1.15074544 -s 1 -d 4 -p ack -e 40 -c 0 -i 23 -a 0 -x {1.0 0.0 8 ------- null}
h -t 1.15074544 -s 1 -d 4 -p ack -e 40 -c 0 -i 23 -a 0 -x {1.0 0.0 -1 ------- null}
+ -t 1.150916 -s 1 -d 4 -p ack -e 40 -c 0 -i 24 -a 0 -x {1.0 0.0 9 ------- null}
- -t 1.150916 -s 1 -d 4 -p ack -e 40 -c 0 -i 24 -a 0 -x {1.0 0.0 9 ------- null}
h -t 1.150916 -s 1 -d 4 -p ack -e 40 -c 0 -i 24 -a 0 -x {1.0 0.0 -1 ------- null}
+ -t 1.15108656 -s 1 -d 4 -p ack -e 40 -c 0 -i 25 -a 0 -x {1.0 0.0 10 ------- null}
- -t 1.15108656 -s 1 -d 4 -p ack -e 40 -c 0 -i 25 -a 0 -x {1.0 0.0 10 ------- null}
h -t 1.15108656 -s 1 -d 4 -p ack -e 40 -c 0 -i 25 -a 0 -x {1.0 0.0 -1 ------- null}
+ -t 1.15125712 -s 1 -d 4 -p ack -e 40 -c 0 -i 26 -a 0 -x {1.0 0.0 11 ------- null}
- -t 1.15125712 -s 1 -d 4 -p ack -e 40 -c 0 -i 26 -a 0 -x {1.0 0.0 11 ------- null}
h -t 1.15125712 -s 1 -d 4 -p ack -e 40 -c 0 -i 26 -a 0 -x {1.0 0.0 -1 ------- null}
+ -t 1.15142768 -s 1 -d 4 -p ack -e 40 -c 0 -i 27 -a 0 -x {1.0 0.0 12 ------- null}
- -t 1.15142768 -s 1 -d 4 -p ack -e 40 -c 0 -i 27 -a 0 -x {1.0 0.0 12 ------- null}
h -t 1.15142768 -s 1 -d 4 -p ack -e 40 -c 0 -i 27 -a 0 -x {1.0 0.0 -1 ------- null}
+ -t 1.15159824 -s 1 -d 4 -p ack -e 40 -c 0 -i 28 -a 0 -x {1.0 0.0 13 ------- null}
- -t 1.15159824 -s 1 -d 4 -p ack -e 40 -c 0 -i 28 -a 0 -x {1.0 0.0 13 ------- null}
h -t 1.15159824 -s 1 -d 4 -p ack -e 40 -c 0 -i 28 -a 0 -x {1.0 0.0 -1 ------- null}
+ -t 1.1517688 -s 1 -d 4 -p ack -e 40 -c 0 -i 29 -a 0 -x {1.0 0.0 14 ------- null}
- -t 1.1517688 -s 1 -d 4 -p ack -e 40 -c 0 -i 29 -a 0 -x {1.0 0.0 14 ------- null}
h -t 1.1517688 -s 1 -d 4 -p ack -e 40 -c 0 -i 29 -a 0 -x {1.0 0.0 -1 ------- null}
r -t 1.16058912 -s 4 -d 0 -p ack -e 40 -c 0 -i 22 -a 0 -x {1.0 0.0 7 ------- null}
h -t 1.16058912 -s 0 -d 4 -p tcp -e 1040 -c 0 -i 30 -a 0 -x {0.0 1.0 15 ------- null}
h -t 1.16058912 -s 0 -d 4 -p tcp -e 1040 -c 0 -i 31 -a 0 -x {0.0 1.0 16 ------- null}
r -t 1.16075968 -s 4 -d 0 -p ack -e 40 -c 0 -i 23 -a 0 -x {1.0 0.0 8 ------- null}
h -t 1.16075968 -s 0 -d 4 -p tcp -e 1040 -c 0 -i 32 -a 0 -x {0.0 1.0 17 ------- null}
h -t 1.16075968 -s 0 -d 4 -p tcp -e 1040 -c 0 -i 33 -a 0 -x {0.0 1.0 18 ------- null}
r -t 1.16093024 -s 4 -d 0 -p ack -e 40 -c 0 -i 24 -a 0 -x {1.0 0.0 9 ------- null}
h -t 1.16093024 -s 0 -d 4 -p tcp -e 1040 -c 0 -i 34 -a 0 -x {0.0 1.0 19 ------- null}
h -t 1.16093024 -s 0 -d 4 -p tcp -e 1040 -c 0 -i 35 -a 0 -x {0.0 1.0 20 ------- null}
r -t 1.1611008 -s 4 -d 0 -p ack -e 40 -c 0 -i 25 -a 0 -x {1.0 0.0 10 ------- null}
h -t 1.1611008 -s 0 -d 4 -p tcp -e 1040 -c 0 -i 36 -a 0 -x {0.0 1.0 21 ------- null}
h -t 1.1611008 -s 0 -d 4 -p tcp -e 1040 -c 0 -i 37 -a 0 -x {0.0 1.0 22 ------- null}
r -t 1.16127136 -s 4 -d 0 -p ack -e 40 -c 0 -i 26 -a 0 -x {1.0 0.0 11 ------- null}
h -t 1.16127136 -s 0 -d 4 -p tcp -e 1040 -c 0 -i 38 -a 0 -x {0.0 1.0 23 ------- null}
h -t 1.16127136 -s 0 -d 4 -p tcp -e 1040 -c 0 -i 39 -a 0 -x {0.0 1.0 24 ------- null}
r -t 1.16144192 -s 4 -d 0 -p ack -e 40 -c 0 -i 27 -a 0 -x {1.0 0.0 12 ------- null}
h -t 1.16144192 -s 0 -d 4 -p tcp -e 1040 -c 0 -i 40 -a 0 -x {0.0 1.0 25 ------- null}
h -t 1.16144192 -s 0 -d 4 -p tcp -e 1040 -c 0 -i 41 -a 0 -x {0.0 1.0 26 ------- null}
r -t 1.16161248 -s 4 -d 0 -p ack -e 40 -c 0 -i 28 -a 0 -x {1.0 0.0 13 ------- null}
h -t 1.16161248 -s 0 -d 4 -p tcp -e 1040 -c 0 -i 42 -a 0 -x {0.0 1.0 27 ------- null}
h -t 1.16161248 -s 0 -d 4 -p tcp -e 1040 -c 0 -i 43 -a 0 -x {0.0 1.0 28 ------- null}
r -t 1.16178304 -s 4 -d 0 -p ack -e 40 -c 0 -i 29 -a 0 -x {1.0 0.0 14 ------- null}
h -t 1.16178304 -s 0 -d 4 -p tcp -e 1040 -c 0 -i 44 -a 0 -x {0.0 1.0 29 ------- null}
h -t 1.16178304 -s 0 -d 4 -p tcp -e 1040 -c 0 -i 45 -a 0 -x {0.0 1.0 30 ------- null}
+ -t 1.17058912 -s 0 -d 4 -p tcp -e 1040 -c 0 -i 30 -a 0 -x {0.0 1.0 15 ------- null}
- -t 1.17058912 -s 0 -d 4 -p tcp -e 1040 -c 0 -i 30 -a 0 -x {0.0 1.0 15 ------- null}
h -t 1.17058912 -s 0 -d 4 -p tcp -e 1040 -c 0 -i 30 -a 0 -x {0.0 1.0 -1 ------- null}
+ -t 1.17058912 -s 0 -d 4 -p tcp -e 1040 -c 0 -i 31 -a 0 -x {0.0 1.0 16 ------- null}
+ -t 1.17075968 -s 0 -d 4 -p tcp -e 1040 -c 0 -i 32 -a 0 -x {0.0 1.0 17 ------- null}
+ -t 1.17075968 -s 0 -d 4 -p tcp -e 1040 -c 0 -i 33 -a 0 -x {0.0 1.0 18 ------- null}
- -t 1.17075968 -s 0 -d 4 -p tcp -e 1040 -c 0 -i 31 -a 0 -x {0.0 1.0 16 ------- null}
h -t 1.17075968 -s 0 -d 4 -p tcp -e 1040 -c 0 -i 31 -a 0 -x {0.0 1.0 -1 ------- null}
+ -t 1.17093024 -s 0 -d 4 -p tcp -e 1040 -c 0 -i 34 -a 0 -x {0.0 1.0 19 ------- null}
+ -t 1.17093024 -s 0 -d 4 -p tcp -e 1040 -c 0 -i 35 -a 0 -x {0.0 1.0 20 ------- null}
- -t 1.17093024 -s 0 -d 4 -p tcp -e 1040 -c 0 -i 32 -a 0 -x {0.0 1.0 17 ------- null}
h -t 1.17093024 -s 0 -d 4 -p tcp -e 1040 -c 0 -i 32 -a 0 -x {0.0 1.0 -1 ------- null}
+ -t 1.1711008 -s 0 -d 4 -p tcp -e 1040 -c 0 -i 36 -a 0 -x {0.0 1.0 21 ------- null}
+ -t 1.1711008 -s 0 -d 4 -p tcp -e 1040 -c 0 -i 37 -a 0 -x {0.0 1.0 22 ------- null}
- -t 1.1711008 -s 0 -d 4 -p tcp -e 1040 -c 0 -i 33 -a 0 -x {0.0 1.0 18 ------- null}
h -t 1.1711008 -s 0 -d 4 -p tcp -e 1040 -c 0 -i 33 -a 0 -x {0.0 1.0 -1 ------- null}
+ -t 1.17127136 -s 0 -d 4 -p tcp -e 1040 -c 0 -i 38 -a 0 -x {0.0 1.0 23 ------- null}
+ -t 1.17127136 -s 0 -d 4 -p tcp -e 1040 -c 0 -i 39 -a 0 -x {0.0 1.0 24 ------- null}
- -t 1.17127136 -s 0 -d 4 -p tcp -e 1040 -c 0 -i 34 -a 0 -x {0.0 1.0 19 ------- null}
h -t 1.17127136 -s 0 -d 4 -p tcp -e 1040 -c 0 -i 34 -a 0 -x {0.0 1.0 -1 ------- null}
+ -t 1.17144192 -s 0 -d 4 -p tcp -e 1040 -c 0 -i 40 -a 0 -x {0.0 1.0 25 ------- null}
+ -t 1.17144192 -s 0 -d 4 -p tcp -e 1040 -c 0 -i 41 -a 0 -x {0.0 1.0 26 ------- null}
- -t 1.17144192 -s 0 -d 4 -p tcp -e 1040 -c 0 -i 35 -a 0 -x {0.0 1.0 20 ------- null}
h -t 1.17144192 -s 0 -d 4 -p tcp -e 1040 -c 0 -i 35 -a 0 -x {0.0 1.0 -1 ------- null}
+ -t 1.17161248 -s 0 -d 4 -p tcp -e 1040 -c 0 -i 42 -a 0 -x {0.0 1.0 27 ------- null}
+ -t 1.17161248 -s 0 -d 4 -p tcp -e 1040 -c 0 -i 43 -a 0 -x {0.0 1.0 28 ------- null}
- -t 1.17161248 -s 0 -d 4 -p tcp -e 1040 -c 0 -i 36 -a 0 -x {0.0 1.0 21 ------- null}
h -t 1.17161248 -s 0 -d 4 -p tcp -e 1040 -c 0 -i 36 -a 0 -x {0.0 1.0 -1 ------- null}
+ -t 1.17178304 -s 0 -d 4 -p tcp -e 1040 -c 0 -i 44 -a 0 -x {0.0 1.0 29 ------- null}
+ -t 1.17178304 -s 0 -d 4 -p tcp -e 1040 -c 0 -i 45 -a 0 -x {0.0 1.0 30 ------- null}
- -t 1.17178304 -s 0 -d 4 -p tcp -e 1040 -c 0 -i 37 -a 0 -x {0.0 1.0 22 ------- null}
h -t 1.17178304 -s 0 -d 4 -p tcp -e 1040 -c 0 -i 37 -a 0 -x {0.0 1.0 -1 ------- null}
- -t 1.1719536 -s 0 -d 4 -p tcp -e 1040 -c 0 -i 38 -a 0 -x {0.0 1.0 23 ------- null}
h -t 1.1719536 -s 0 -d 4 -p tcp -e 1040 -c 0 -i 38 -a 0 -x {0.0 1.0 -1 ------- null}
- -t 1.17212416 -s 0 -d 4 -p tcp -e 1040 -c 0 -i 39 -a 0 -x {0.0 1.0 24 ------- null}
h -t 1.17212416 -s 0 -d 4 -p tcp -e 1040 -c 0 -i 39 -a 0 -x {0.0 1.0 -1 ------- null}
- -t 1.17229472 -s 0 -d 4 -p tcp -e 1040 -c 0 -i 40 -a 0 -x {0.0 1.0 25 ------- null}
h -t 1.17229472 -s 0 -d 4 -p tcp -e 1040 -c 0 -i 40 -a 0 -x {0.0 1.0 -1 ------- null}
- -t 1.17246528 -s 0 -d 4 -p tcp -e 1040 -c 0 -i 41 -a 0 -x {0.0 1.0 26 ------- null}
h -t 1.17246528 -s 0 -d 4 -p tcp -e 1040 -c 0 -i 41 -a 0 -x {0.0 1.0 -1 ------- null}
- -t 1.17263584 -s 0 -d 4 -p tcp -e 1040 -c 0 -i 42 -a 0 -x {0.0 1.0 27 ------- null}
h -t 1.17263584 -s 0 -d 4 -p tcp -e 1040 -c 0 -i 42 -a 0 -x {0.0 1.0 -1 ------- null}
- -t 1.1728064 -s 0 -d 4 -p tcp -e 1040 -c 0 -i 43 -a 0 -x {0.0 1.0 28 ------- null}
h -t 1.1728064 -s 0 -d 4 -p tcp -e 1040 -c 0 -i 43 -a 0 -x {0.0 1.0 -1 ------- null}
- -t 1.17297696 -s 0 -d 4 -p tcp -e 1040 -c 0 -i 44 -a 0 -x {0.0 1.0 29 ------- null}
h -t 1.17297696 -s 0 -d 4 -p tcp -e 1040 -c 0 -i 44 -a 0 -x {0.0 1.0 -1 ------- null}
- -t 1.17314752 -s 0 -d 4 -p tcp -e 1040 -c 0 -i 45 -a 0 -x {0.0 1.0 30 ------- null}
h -t 1.17314752 -s 0 -d 4 -p tcp -e 1040 -c 0 -i 45 -a 0 -x {0.0 1.0 -1 ------- null}
r -t 1.18076176 -s 4 -d 1 -p tcp -e 1040 -c 0 -i 30 -a 0 -x {0.0 1.0 15 ------- null}
h -t 1.18076176 -s 1 -d 4 -p ack -e 40 -c 0 -i 46 -a 0 -x {1.0 0.0 15 ------- null}
r -t 1.18093232 -s 4 -d 1 -p tcp -e 1040 -c 0 -i 31 -a 0 -x {0.0 1.0 16 ------- null}
h -t 1.18093232 -s 1 -d 4 -p ack -e 40 -c 0 -i 47 -a 0 -x {1.0 0.0 16 ------- null}
r -t 1.18110288 -s 4 -d 1 -p tcp -e 1040 -c 0 -i 32 -a 0 -x {0.0 1.0 17 ------- null}
h -t 1.18110288 -s 1 -d 4 -p ack -e 40 -c 0 -i 48 -a 0 -x {1.0 0.0 17 ------- null}
r -t 1.18127344 -s 4 -d 1 -p tcp -e 1040 -c 0 -i 33 -a 0 -x {0.0 1.0 18 ------- null}
h -t 1.18127344 -s 1 -d 4 -p ack -e 40 -c 0 -i 49 -a 0 -x {1.0 0.0 18 ------- null}
r -t 1.181444 -s 4 -d 1 -p tcp -e 1040 -c 0 -i 34 -a 0 -x {0.0 1.0 19 ------- null}
h -t 1.181444 -s 1 -d 4 -p ack -e 40 -c 0 -i 50 -a 0 -x {1.0 0.0 19 ------- null}
r -t 1.18161456 -s 4 -d 1 -p tcp -e 1040 -c 0 -i 35 -a 0 -x {0.0 1.0 20 ------- null}
h -t 1.18161456 -s 1 -d 4 -p ack -e 40 -c 0 -i 51 -a 0 -x {1.0 0.0 20 ------- null}
r -t 1.18178512 -s 4 -d 1 -p tcp -e 1040 -c 0 -i 36 -a 0 -x {0.0 1.0 21 ------- null}
h -t 1.18178512 -s 1 -d 4 -p ack -e 40 -c 0 -i 52 -a 0 -x {1.0 0.0 21 ------- null}
r -t 1.18195568 -s 4 -d 1 -p tcp -e 1040 -c 0 -i 37 -a 0 -x {0.0 1.0 22 ------- null}
h -t 1.18195568 -s 1 -d 4 -p ack -e 40 -c 0 -i 53 -a 0 -x {1.0 0.0 22 ------- null}
r -t 1.18212624 -s 4 -d 1 -p tcp -e 1040 -c 0 -i 38 -a 0 -x {0.0 1.0 23 ------- null}
h -t 1.18212624 -s 1 -d 4 -p ack -e 40 -c 0 -i 54 -a 0 -x {1.0 0.0 23 ------- null}
r -t 1.1822968 -s 4 -d 1 -p tcp -e 1040 -c 0 -i 39 -a 0 -x {0.0 1.0 24 ------- null}
h -t 1.1822968 -s 1 -d 4 -p ack -e 40 -c 0 -i 55 -a 0 -x {1.0 0.0 24 ------- null}
r -t 1.18246736 -s 4 -d 1 -p tcp -e 1040 -c 0 -i 40 -a 0 -x {0.0 1.0 25 ------- null}
h -t 1.18246736 -s 1 -d 4 -p ack -e 40 -c 0 -i 56 -a 0 -x {1.0 0.0 25 ------- null}
r -t 1.18263792 -s 4 -d 1 -p tcp -e 1040 -c 0 -i 41 -a 0 -x {0.0 1.0 26 ------- null}
h -t 1.18263792 -s 1 -d 4 -p ack -e 40 -c 0 -i 57 -a 0 -x {1.0 0.0 26 ------- null}
r -t 1.18280848 -s 4 -d 1 -p tcp -e 1040 -c 0 -i 42 -a 0 -x {0.0 1.0 27 ------- null}
h -t 1.18280848 -s 1 -d 4 -p ack -e 40 -c 0 -i 58 -a 0 -x {1.0 0.0 27 ------- null}
r -t 1.18297904 -s 4 -d 1 -p tcp -e 1040 -c 0 -i 43 -a 0 -x {0.0 1.0 28 ------- null}
h -t 1.18297904 -s 1 -d 4 -p ack -e 40 -c 0 -i 59 -a 0 -x {1.0 0.0 28 ------- null}
r -t 1.1831496 -s 4 -d 1 -p tcp -e 1040 -c 0 -i 44 -a 0 -x {0.0 1.0 29 ------- null}
h -t 1.1831496 -s 1 -d 4 -p ack -e 40 -c 0 -i 60 -a 0 -x {1.0 0.0 29 ------- null}
r -t 1.18332016 -s 4 -d 1 -p tcp -e 1040 -c 0 -i 45 -a 0 -x {0.0 1.0 30 ------- null}
h -t 1.18332016 -s 1 -d 4 -p ack -e 40 -c 0 -i 61 -a 0 -x {1.0 0.0 30 ------- null}
+ -t 1.19076176 -s 1 -d 4 -p ack -e 40 -c 0 -i 46 -a 0 -x {1.0 0.0 15 ------- null}
- -t 1.19076176 -s 1 -d 4 -p ack -e 40 -c 0 -i 46 -a 0 -x {1.0 0.0 15 ------- null}
h -t 1.19076176 -s 1 -d 4 -p ack -e 40 -c 0 -i 46 -a 0 -x {1.0 0.0 -1 ------- null}
+ -t 1.19093232 -s 1 -d 4 -p ack -e 40 -c 0 -i 47 -a 0 -x {1.0 0.0 16 ------- null}
- -t 1.19093232 -s 1 -d 4 -p ack -e 40 -c 0 -i 47 -a 0 -x {1.0 0.0 16 ------- null}
h -t 1.19093232 -s 1 -d 4 -p ack -e 40 -c 0 -i 47 -a 0 -x {1.0 0.0 -1 ------- null}
+ -t 1.19110288 -s 1 -d 4 -p ack -e 40 -c 0 -i 48 -a 0 -x {1.0 0.0 17 ------- null}
- -t 1.19110288 -s 1 -d 4 -p ack -e 40 -c 0 -i 48 -a 0 -x {1.0 0.0 17 ------- null}
h -t 1.19110288 -s 1 -d 4 -p ack -e 40 -c 0 -i 48 -a 0 -x {1.0 0.0 -1 ------- null}
+ -t 1.19127344 -s 1 -d 4 -p ack -e 40 -c 0 -i 49 -a 0 -x {1.0 0.0 18 ------- null}
- -t 1.19127344 -s 1 -d 4 -p ack -e 40 -c 0 -i 49 -a 0 -x {1.0 0.0 18 ------- null}
h -t 1.19127344 -s 1 -d 4 -p ack -e 40 -c 0 -i 49 -a 0 -x {1.0 0.0 -1 ------- null}
+ -t 1.191444 -s 1 -d 4 -p ack -e 40 -c 0 -i 50 -a 0 -x {1.0 0.0 19 ------- null}
- -t 1.191444 -s 1 -d 4 -p ack -e 40 -c 0 -i 50 -a 0 -x {1.0 0.0 19 ------- null}
h -t 1.191444 -s 1 -d 4 -p ack -e 40 -c 0 -i 50 -a 0 -x {1.0 0.0 -1 ------- null}
+ -t 1.19161456 -s 1 -d 4 -p ack -e 40 -c 0 -i 51 -a 0 -x {1.0 0.0 20 ------- null}
- -t 1.19161456 -s 1 -d 4 -p ack -e 40 -c 0 -i 51 -a 0 -x {1.0 0.0 20 ------- null}
h -t 1.19161456 -s 1 -d 4 -p ack -e 40 -c 0 -i 51 -a 0 -x {1.0 0.0 -1 ------- null}
+ -t 1.19178512 -s 1 -d 4 -p ack -e 40 -c 0 -i 52 -a 0 -x {1.0 0.0 21 ------- null}
- -t 1.19178512 -s 1 -d 4 -p ack -e 40 -c 0 -i 52 -a 0 -x {1.0 0.0 21 ------- null}
h -t 1.19178512 -s 1 -d 4 -p ack -e 40 -c 0 -i 52 -a 0 -x {1.0 0.0 -1 ------- null}
+ -t 1.19195568 -s 1 -d 4 -p ack -e 40 -c 0 -i 53 -a 0 -x {1.0 0.0 22 ------- null}
- -t 1.19195568 -s 1 -d 4 -p ack -e 40 -c 0 -i 53 -a 0 -x {1.0 0.0 22 ------- null}
h -t 1.19195568 -s 1 -d 4 -p ack -e 40 -c 0 -i 53 -a 0 -x {1.0 0.0 -1 ------- null}
+ -t 1.19212624 -s 1 -d 4 -p ack -e 40 -c 0 -i 54 -a 0 -x {1.0 0.0 23 ------- null}
- -t 1.19212624 -s 1 -d 4 -p ack -e 40 -c 0 -i 54 -a 0 -x {1.0 0.0 23 ------- null}
h -t 1.19212624 -s 1 -d 4 -p ack -e 40 -c 0 -i 54 -a 0 -x {1.0 0.0 -1 ------- null}
+ -t 1.1922968 -s 1 -d 4 -p ack -e 40 -c 0 -i 55 -a 0 -x {1.0 0.0 24 ------- null}
- -t 1.1922968 -s 1 -d 4 -p ack -e 40 -c 0 -i 55 -a 0 -x {1.0 0.0 24 ------- null}
h -t 1.1922968 -s 1 -d 4 -p ack -e 40 -c 0 -i 55 -a 0 -x {1.0 0.0 -1 ------- null}
+ -t 1.19246736 -s 1 -d 4 -p ack -e 40 -c 0 -i 56 -a 0 -x {1.0 0.0 25 ------- null}
- -t 1.19246736 -s 1 -d 4 -p ack -e 40 -c 0 -i 56 -a 0 -x {1.0 0.0 25 ------- null}
h -t 1.19246736 -s 1 -d 4 -p ack -e 40 -c 0 -i 56 -a 0 -x {1.0 0.0 -1 ------- null}
+ -t 1.19263792 -s 1 -d 4 -p ack -e 40 -c 0 -i 57 -a 0 -x {1.0 0.0 26 ------- null}
- -t 1.19263792 -s 1 -d 4 -p ack -e 40 -c 0 -i 57 -a 0 -x {1.0 0.0 26 ------- null}
h -t 1.19263792 -s 1 -d 4 -p ack -e 40 -c 0 -i 57 -a 0 -x {1.0 0.0 -1 ------- null}
+ -t 1.19280848 -s 1 -d 4 -p ack -e 40 -c 0 -i 58 -a 0 -x {1.0 0.0 27 ------- null}
- -t 1.19280848 -s 1 -d 4 -p ack -e 40 -c 0 -i 58 -a 0 -x {1.0 0.0 27 ------- null}
h -t 1.19280848 -s 1 -d 4 -p ack -e 40 -c 0 -i 58 -a 0 -x {1.0 0.0 -1 ------- null}
+ -t 1.19297904 -s 1 -d 4 -p ack -e 40 -c 0 -i 59 -a 0 -x {1.0 0.0 28 ------- null}
- -t 1.19297904 -s 1 -d 4 -p ack -e 40 -c 0 -i 59 -a 0 -x {1.0 0.0 28 ------- null}
h -t 1.19297904 -s 1 -d 4 -p ack -e 40 -c 0 -i 59 -a 0 -x {1.0 0.0 -1 ------- null}
+ -t 1.1931496 -s 1 -d 4 -p ack -e 40 -c 0 -i 60 -a 0 -x {1.0 0.0 29 ------- null}
- -t 1.1931496 -s 1 -d 4 -p ack -e 40 -c 0 -i 60 -a 0 -x {1.0 0.0 29 ------- null}
h -t 1.1931496 -s 1 -d 4 -p ack -e 40 -c 0 -i 60 -a 0 -x {1.0 0.0 -1 ------- null}
+ -t 1.19332016 -s 1 -d 4 -p ack -e 40 -c 0 -i 61 -a 0 -x {1.0 0.0 30 ------- null}
- -t 1.19332016 -s 1 -d 4 -p ack -e 40 -c 0 -i 61 -a 0 -x {1.0 0.0 30 ------- null}
h -t 1.19332016 -s 1 -d 4 -p ack -e 40 -c 0 -i 61 -a 0 -x {1.0 0.0 -1 ------- null}
r -t 1.200776 -s 4 -d 0 -p ack -e 40 -c 0 -i 46 -a 0 -x {1.0 0.0 15 ------- null}
h -t 1.200776 -s 0 -d 4 -p tcp -e 1040 -c 0 -i 62 -a 0 -x {0.0 1.0 31 ------- null}
h -t 1.200776 -s 0 -d 4 -p tcp -e 1040 -c 0 -i 63 -a 0 -x {0.0 1.0 32 ------- null}
r -t 1.20094656 -s 4 -d 0 -p ack -e 40 -c 0 -i 47 -a 0 -x {1.0 0.0 16 ------- null}
h -t 1.20094656 -s 0 -d 4 -p tcp -e 1040 -c 0 -i 64 -a 0 -x {0.0 1.0 33 ------- null}
h -t 1.20094656 -s 0 -d 4 -p tcp -e 1040 -c 0 -i 65 -a 0 -x {0.0 1.0 34 ------- null}
r -t 1.20111712 -s 4 -d 0 -p ack -e 40 -c 0 -i 48 -a 0 -x {1.0 0.0 17 ------- null}
h -t 1.20111712 -s 0 -d 4 -p tcp -e 1040 -c 0 -i 66 -a 0 -x {0.0 1.0 35 ------- null}
h -t 1.20111712 -s 0 -d 4 -p tcp -e 1040 -c 0 -i 67 -a 0 -x {0.0 1.0 36 ------- null}
r -t 1.20128768 -s 4 -d 0 -p ack -e 40 -c 0 -i 49 -a 0 -x {1.0 0.0 18 ------- null}
h -t 1.20128768 -s 0 -d 4 -p tcp -e 1040 -c 0 -i 68 -a 0 -x {0.0 1.0 37 ------- null}
h -t 1.20128768 -s 0 -d 4 -p tcp -e 1040 -c 0 -i 69 -a 0 -x {0.0 1.0 38 ------- null}
r -t 1.20145824 -s 4 -d 0 -p ack -e 40 -c 0 -i 50 -a 0 -x {1.0 0.0 19 ------- null}
h -t 1.20145824 -s 0 -d 4 -p tcp -e 1040 -c 0 -i 70 -a 0 -x {0.0 1.0 39 ------- null}
r -t 1.2016288 -s 4 -d 0 -p ack -e 40 -c 0 -i 51 -a 0 -x {1.0 0.0 20 ------- null}
h -t 1.2016288 -s 0 -d 4 -p tcp -e 1040 -c 0 -i 71 -a 0 -x {0.0 1.0 40 ------- null}
r -t 1.20179936 -s 4 -d 0 -p ack -e 40 -c 0 -i 52 -a 0 -x {1.0 0.0 21 ------- null}
h -t 1.20179936 -s 0 -d 4 -p tcp -e 1040 -c 0 -i 72 -a 0 -x {0.0 1.0 41 ------- null}
r -t 1.20196992 -s 4 -d 0 -p ack -e 40 -c 0 -i 53 -a 0 -x {1.0 0.0 22 ------- null}
h -t 1.20196992 -s 0 -d 4 -p tcp -e 1040 -c 0 -i 73 -a 0 -x {0.0 1.0 42 ------- null}
r -t 1.20214048 -s 4 -d 0 -p ack -e 40 -c 0 -i 54 -a 0 -x {1.0 0.0 23 ------- null}
h -t 1.20214048 -s 0 -d 4 -p tcp -e 1040 -c 0 -i 74 -a 0 -x {0.0 1.0 43 ------- null}
r -t 1.20231104 -s 4 -d 0 -p ack -e 40 -c 0 -i 55 -a 0 -x {1.0 0.0 24 ------- null}
h -t 1.20231104 -s 0 -d 4 -p tcp -e 1040 -c 0 -i 75 -a 0 -x {0.0 1.0 44 ------- null}
r -t 1.2024816 -s 4 -d 0 -p ack -e 40 -c 0 -i 56 -a 0 -x {1.0 0.0 25 ------- null}
h -t 1.2024816 -s 0 -d 4 -p tcp -e 1040 -c 0 -i 76 -a 0 -x {0.0 1.0 45 ------- null}
r -t 1.20265216 -s 4 -d 0 -p ack -e 40 -c 0 -i 57 -a 0 -x {1.0 0.0 26 ------- null}
h -t 1.20265216 -s 0 -d 4 -p tcp -e 1040 -c 0 -i 77 -a 0 -x {0.0 1.0 46 ------- null}
r -t 1.20282272 -s 4 -d 0 -p ack -e 40 -c 0 -i 58 -a 0 -x {1.0 0.0 27 ------- null}
h -t 1.20282272 -s 0 -d 4 -p tcp -e 1040 -c 0 -i 78 -a 0 -x {0.0 1.0 47 ------- null}
r -t 1.20299328 -s 4 -d 0 -p ack -e 40 -c 0 -i 59 -a 0 -x {1.0 0.0 28 ------- null}
h -t 1.20299328 -s 0 -d 4 -p tcp -e 1040 -c 0 -i 79 -a 0 -x {0.0 1.0 48 ------- null}
r -t 1.20316384 -s 4 -d 0 -p ack -e 40 -c 0 -i 60 -a 0 -x {1.0 0.0 29 ------- null}
h -t 1.20316384 -s 0 -d 4 -p tcp -e 1040 -c 0 -i 80 -a 0 -x {0.0 1.0 49 ------- null}
r -t 1.2033344 -s 4 -d 0 -p ack -e 40 -c 0 -i 61 -a 0 -x {1.0 0.0 30 ------- null}
h -t 1.2033344 -s 0 -d 4 -p tcp -e 1040 -c 0 -i 81 -a 0 -x {0.0 1.0 50 ------- null}
+ -t 1.210776 -s 0 -d 4 -p tcp -e 1040 -c 0 -i 62 -a 0 -x {0.0 1.0 31 ------- null}
- -t 1.210776 -s 0 -d 4 -p tcp -e 1040 -c 0 -i 62 -a 0 -x {0.0 1.0 31 ------- null}
h -t 1.210776 -s 0 -d 4 -p tcp -e 1040 -c 0 -i 62 -a 0 -x {0.0 1.0 -1 ------- null}
+ -t 1.210776 -s 0 -d 4 -p tcp -e 1040 -c 0 -i 63 -a 0 -x {0.0 1.0 32 ------- null}
+ -t 1.21094656 -s 0 -d 4 -p tcp -e 1040 -c 0 -i 64 -a 0 -x {0.0 1.0 33 ------- null}
+ -t 1.21094656 -s 0 -d 4 -p tcp -e 1040 -c 0 -i 65 -a 0 -x {0.0 1.0 34 ------- null}
- -t 1.21094656 -s 0 -d 4 -p tcp -e 1040 -c 0 -i 63 -a 0 -x {0.0 1.0 32 ------- null}
h -t 1.21094656 -s 0 -d 4 -p tcp -e 1040 -c 0 -i 63 -a 0 -x {0.0 1.0 -1 ------- null}
+ -t 1.21111712 -s 0 -d 4 -p tcp -e 1040 -c 0 -i 66 -a 0 -x {0.0 1.0 35 ------- null}
+ -t 1.21111712 -s 0 -d 4 -p tcp -e 1040 -c 0 -i 67 -a 0 -x {0.0 1.0 36 ------- null}
- -t 1.21111712 -s 0 -d 4 -p tcp -e 1040 -c 0 -i 64 -a 0 -x {0.0 1.0 33 ------- null}
h -t 1.21111712 -s 0 -d 4 -p tcp -e 1040 -c 0 -i 64 -a 0 -x {0.0 1.0 -1 ------- null}
+ -t 1.21128768 -s 0 -d 4 -p tcp -e 1040 -c 0 -i 68 -a 0 -x {0.0 1.0 37 ------- null}
+ -t 1.21128768 -s 0 -d 4 -p tcp -e 1040 -c 0 -i 69 -a 0 -x {0.0 1.0 38 ------- null}
- -t 1.21128768 -s 0 -d 4 -p tcp -e 1040 -c 0 -i 65 -a 0 -x {0.0 1.0 34 ------- null}
h -t 1.21128768 -s 0 -d 4 -p tcp -e 1040 -c 0 -i 65 -a 0 -x {0.0 1.0 -1 ------- null}
+ -t 1.21145824 -s 0 -d 4 -p tcp -e 1040 -c 0 -i 70 -a 0 -x {0.0 1.0 39 ------- null}
- -t 1.21145824 -s 0 -d 4 -p tcp -e 1040 -c 0 -i 66 -a 0 -x {0.0 1.0 35 ------- null}