+ 1 0 1 tcp 40 ------- 0 0.0 2.0 0 0
- 1 0 1 tcp 40 ------- 0 0.0 2.0 0 0
r 1.01 0 1 tcp 40 ------- 0 0.0 2.0 0 0
+ 1.01 1 2 tcp 40 ------- 0 0.0 2.0 0 0
- 1.01 1 2 tcp 40 ------- 0 0.0 2.0 0 0
r 1.020004 1 2 tcp 40 ------- 0 0.0 2.0 0 0
+ 1.020004 2 1 ack 40 ------- 0 2.0 0.0 0 1
- 1.020004 2 1 ack 40 ------- 0 2.0 0.0 0 1
r 1.030007 2 1 ack 40 ------- 0 2.0 0.0 0 1
+ 1.030007 1 0 ack 40 ------- 0 2.0 0.0 0 1
- 1.030007 1 0 ack 40 ------- 0 2.0 0.0 0 1
r 1.040007 1 0 ack 40 ------- 0 2.0 0.0 0 1
+ 1.040007 0 1 tcp 1540 ------- 0 0.0 2.0 1 2
- 1.040007 0 1 tcp 1540 ------- 0 0.0 2.0 1 2
+ 1.040007 0 1 tcp 1540 ------- 0 0.0 2.0 2 3
- 1.040019 0 1 tcp 1540 ------- 0 0.0 2.0 2 3
r 1.050019 0 1 tcp 1540 ------- 0 0.0 2.0 1 2
+ 1.050019 1 2 tcp 1540 ------- 0 0.0 2.0 1 2
- 1.050019 1 2 tcp 1540 ------- 0 0.0 2.0 1 2
r 1.050032 0 1 tcp 1540 ------- 0 0.0 2.0 2 3
+ 1.050032 1 2 tcp 1540 ------- 0 0.0 2.0 2 3
- 1.050143 1 2 tcp 1540 ------- 0 0.0 2.0 2 3
r 1.060143 1 2 tcp 1540 ------- 0 0.0 2.0 1 2
+ 1.060143 2 1 ack 40 ------- 0 2.0 0.0 1 4
- 1.060143 2 1 ack 40 ------- 0 2.0 0.0 1 4
r 1.060266 1 2 tcp 1540 ------- 0 0.0 2.0 2 3
+ 1.060266 2 1 ack 40 ------- 0 2.0 0.0 2 5
- 1.060266 2 1 ack 40 ------- 0 2.0 0.0 2 5
r 1.070146 2 1 ack 40 ------- 0 2.0 0.0 1 4
+ 1.070146 1 0 ack 40 ------- 0 2.0 0.0 1 4
- 1.070146 1 0 ack 40 ------- 0 2.0 0.0 1 4
r 1.070269 2 1 ack 40 ------- 0 2.0 0.0 2 5
+ 1.070269 1 0 ack 40 ------- 0 2.0 0.0 2 5
- 1.070269 1 0 ack 40 ------- 0 2.0 0.0 2 5
r 1.080146 1 0 ack 40 ------- 0 2.0 0.0 1 4
+ 1.080146 0 1 tcp 1540 ------- 0 0.0 2.0 3 6
- 1.080146 0 1 tcp 1540 ------- 0 0.0 2.0 3 6
+ 1.080146 0 1 tcp 1540 ------- 0 0.0 2.0 4 7
- 1.080158 0 1 tcp 1540 ------- 0 0.0 2.0 4 7
r 1.080269 1 0 ack 40 ------- 0 2.0 0.0 2 5
+ 1.080269 0 1 tcp 1540 ------- 0 0.0 2.0 5 8
- 1.080269 0 1 tcp 1540 ------- 0 0.0 2.0 5 8
+ 1.080269 0 1 tcp 1540 ------- 0 0.0 2.0 6 9
- 1.080282 0 1 tcp 1540 ------- 0 0.0 2.0 6 9
r 1.090158 0 1 tcp 1540 ------- 0 0.0 2.0 3 6
+ 1.090158 1 2 tcp 1540 ------- 0 0.0 2.0 3 6
- 1.090158 1 2 tcp 1540 ------- 0 0.0 2.0 3 6
r 1.090171 0 1 tcp 1540 ------- 0 0.0 2.0 4 7
+ 1.090171 1 2 tcp 1540 ------- 0 0.0 2.0 4 7
r 1.090282 0 1 tcp 1540 ------- 0 0.0 2.0 5 8
+ 1.090282 1 2 tcp 1540 ------- 0 0.0 2.0 5 8
d 1.090282 1 2 tcp 1540 ------- 0 0.0 2.0 5 8
- 1.090282 1 2 tcp 1540 ------- 0 0.0 2.0 4 7
r 1.090294 0 1 tcp 1540 ------- 0 0.0 2.0 6 9
+ 1.090294 1 2 tcp 1540 ------- 0 0.0 2.0 6 9
- 1.090405 1 2 tcp 1540 ------- 0 0.0 2.0 6 9
r 1.100282 1 2 tcp 1540 ------- 0 0.0 2.0 3 6
+ 1.100282 2 1 ack 40 ------- 0 2.0 0.0 3 10
- 1.100282 2 1 ack 40 ------- 0 2.0 0.0 3 10
r 1.100405 1 2 tcp 1540 ------- 0 0.0 2.0 4 7
+ 1.100405 2 1 ack 40 ------- 0 2.0 0.0 4 11
- 1.100405 2 1 ack 40 ------- 0 2.0 0.0 4 11
r 1.100528 1 2 tcp 1540 ------- 0 0.0 2.0 6 9
+ 1.100528 2 1 ack 40 ------- 0 2.0 0.0 4 12
- 1.100528 2 1 ack 40 ------- 0 2.0 0.0 4 12
r 1.110285 2 1 ack 40 ------- 0 2.0 0.0 3 10
+ 1.110285 1 0 ack 40 ------- 0 2.0 0.0 3 10
- 1.110285 1 0 ack 40 ------- 0 2.0 0.0 3 10
r 1.110408 2 1 ack 40 ------- 0 2.0 0.0 4 11
+ 1.110408 1 0 ack 40 ------- 0 2.0 0.0 4 11
- 1.110408 1 0 ack 40 ------- 0 2.0 0.0 4 11
r 1.110531 2 1 ack 40 ------- 0 2.0 0.0 4 12
+ 1.110531 1 0 ack 40 ------- 0 2.0 0.0 4 12
- 1.110531 1 0 ack 40 ------- 0 2.0 0.0 4 12
r 1.120285 1 0 ack 40 ------- 0 2.0 0.0 3 10
+ 1.120285 0 1 tcp 1540 ------- 0 0.0 2.0 7 13
- 1.120285 0 1 tcp 1540 ------- 0 0.0 2.0 7 13
+ 1.120285 0 1 tcp 1540 ------- 0 0.0 2.0 8 14
- 1.120297 0 1 tcp 1540 ------- 0 0.0 2.0 8 14
r 1.120408 1 0 ack 40 ------- 0 2.0 0.0 4 11
+ 1.120408 0 1 tcp 1540 ------- 0 0.0 2.0 9 15
- 1.120408 0 1 tcp 1540 ------- 0 0.0 2.0 9 15
+ 1.120408 0 1 tcp 1540 ------- 0 0.0 2.0 10 16
- 1.120421 0 1 tcp 1540 ------- 0 0.0 2.0 10 16
r 1.120532 1 0 ack 40 ------- 0 2.0 0.0 4 12
+ 1.120532 0 1 tcp 1540 ------- 0 0.0 2.0 11 17
- 1.120532 0 1 tcp 1540 ------- 0 0.0 2.0 11 17
r 1.130297 0 1 tcp 1540 ------- 0 0.0 2.0 7 13
+ 1.130297 1 2 tcp 1540 ------- 0 0.0 2.0 7 13
- 1.130297 1 2 tcp 1540 ------- 0 0.0 2.0 7 13
r 1.13031 0 1 tcp 1540 ------- 0 0.0 2.0 8 14
+ 1.13031 1 2 tcp 1540 ------- 0 0.0 2.0 8 14
r 1.130421 0 1 tcp 1540 ------- 0 0.0 2.0 9 15
+ 1.130421 1 2 tcp 1540 ------- 0 0.0 2.0 9 15
d 1.130421 1 2 tcp 1540 ------- 0 0.0 2.0 9 15
- 1.130421 1 2 tcp 1540 ------- 0 0.0 2.0 8 14
r 1.130433 0 1 tcp 1540 ------- 0 0.0 2.0 10 16
+ 1.130433 1 2 tcp 1540 ------- 0 0.0 2.0 10 16
r 1.130544 0 1 tcp 1540 ------- 0 0.0 2.0 11 17
+ 1.130544 1 2 tcp 1540 ------- 0 0.0 2.0 11 17
d 1.130544 1 2 tcp 1540 ------- 0 0.0 2.0 11 17
- 1.130544 1 2 tcp 1540 ------- 0 0.0 2.0 10 16
r 1.140421 1 2 tcp 1540 ------- 0 0.0 2.0 7 13
+ 1.140421 2 1 ack 40 ------- 0 2.0 0.0 4 18
- 1.140421 2 1 ack 40 ------- 0 2.0 0.0 4 18
r 1.140544 1 2 tcp 1540 ------- 0 0.0 2.0 8 14
+ 1.140544 2 1 ack 40 ------- 0 2.0 0.0 4 19
- 1.140544 2 1 ack 40 ------- 0 2.0 0.0 4 19
r 1.140667 1 2 tcp 1540 ------- 0 0.0 2.0 10 16
+ 1.140667 2 1 ack 40 ------- 0 2.0 0.0 4 20
- 1.140667 2 1 ack 40 ------- 0 2.0 0.0 4 20
r 1.150424 2 1 ack 40 ------- 0 2.0 0.0 4 18
+ 1.150424 1 0 ack 40 ------- 0 2.0 0.0 4 18
- 1.150424 1 0 ack 40 ------- 0 2.0 0.0 4 18
r 1.150547 2 1 ack 40 ------- 0 2.0 0.0 4 19
+ 1.150547 1 0 ack 40 ------- 0 2.0 0.0 4 19
- 1.150547 1 0 ack 40 ------- 0 2.0 0.0 4 19
r 1.15067 2 1 ack 40 ------- 0 2.0 0.0 4 20
+ 1.15067 1 0 ack 40 ------- 0 2.0 0.0 4 20
- 1.15067 1 0 ack 40 ------- 0 2.0 0.0 4 20
r 1.160424 1 0 ack 40 ------- 0 2.0 0.0 4 18
+ 1.160424 0 1 tcp 1540 ------- 0 0.0 2.0 12 21
- 1.160424 0 1 tcp 1540 ------- 0 0.0 2.0 12 21
r 1.160547 1 0 ack 40 ------- 0 2.0 0.0 4 19
+ 1.160547 0 1 tcp 1540 ---A--- 0 0.0 2.0 5 22
- 1.160547 0 1 tcp 1540 ---A--- 0 0.0 2.0 5 22
r 1.160671 1 0 ack 40 ------- 0 2.0 0.0 4 20
r 1.170436 0 1 tcp 1540 ------- 0 0.0 2.0 12 21
+ 1.170436 1 2 tcp 1540 ------- 0 0.0 2.0 12 21
- 1.170436 1 2 tcp 1540 ------- 0 0.0 2.0 12 21
r 1.17056 0 1 tcp 1540 ---A--- 0 0.0 2.0 5 22
+ 1.17056 1 2 tcp 1540 ---A--- 0 0.0 2.0 5 22
- 1.17056 1 2 tcp 1540 ---A--- 0 0.0 2.0 5 22
r 1.18056 1 2 tcp 1540 ------- 0 0.0 2.0 12 21
+ 1.18056 2 1 ack 40 ------- 0 2.0 0.0 4 23
- 1.18056 2 1 ack 40 ------- 0 2.0 0.0 4 23
r 1.180683 1 2 tcp 1540 ---A--- 0 0.0 2.0 5 22
+ 1.180683 2 1 ack 40 ------- 0 2.0 0.0 8 24
- 1.180683 2 1 ack 40 ------- 0 2.0 0.0 8 24
r 1.190563 2 1 ack 40 ------- 0 2.0 0.0 4 23
+ 1.190563 1 0 ack 40 ------- 0 2.0 0.0 4 23
- 1.190563 1 0 ack 40 ------- 0 2.0 0.0 4 23
r 1.190686 2 1 ack 40 ------- 0 2.0 0.0 8 24
+ 1.190686 1 0 ack 40 ------- 0 2.0 0.0 8 24
- 1.190686 1 0 ack 40 ------- 0 2.0 0.0 8 24
r 1.200563 1 0 ack 40 ------- 0 2.0 0.0 4 23
r 1.200686 1 0 ack 40 ------- 0 2.0 0.0 8 24
+ 1.200686 0 1 tcp 1540 ------- 0 0.0 2.0 9 25
- 1.200686 0 1 tcp 1540 ------- 0 0.0 2.0 9 25
+ 1.200686 0 1 tcp 1540 ------- 0 0.0 2.0 10 26
- 1.200699 0 1 tcp 1540 ------- 0 0.0 2.0 10 26
r 1.210699 0 1 tcp 1540 ------- 0 0.0 2.0 9 25
+ 1.210699 1 2 tcp 1540 ------- 0 0.0 2.0 9 25
- 1.210699 1 2 tcp 1540 ------- 0 0.0 2.0 9 25
r 1.210711 0 1 tcp 1540 ------- 0 0.0 2.0 10 26
+ 1.210711 1 2 tcp 1540 ------- 0 0.0 2.0 10 26
- 1.210822 1 2 tcp 1540 ------- 0 0.0 2.0 10 26
r 1.220822 1 2 tcp 1540 ------- 0 0.0 2.0 9 25
+ 1.220822 2 1 ack 40 ------- 0 2.0 0.0 10 27
- 1.220822 2 1 ack 40 ------- 0 2.0 0.0 10 27
r 1.220945 1 2 tcp 1540 ------- 0 0.0 2.0 10 26
+ 1.220945 2 1 ack 40 ------- 0 2.0 0.0 10 28
- 1.220945 2 1 ack 40 ------- 0 2.0 0.0 10 28
r 1.230825 2 1 ack 40 ------- 0 2.0 0.0 10 27
+ 1.230825 1 0 ack 40 ------- 0 2.0 0.0 10 27
- 1.230825 1 0 ack 40 ------- 0 2.0 0.0 10 27
r 1.230948 2 1 ack 40 ------- 0 2.0 0.0 10 28
+ 1.230948 1 0 ack 40 ------- 0 2.0 0.0 10 28
- 1.230948 1 0 ack 40 ------- 0 2.0 0.0 10 28
r 1.240825 1 0 ack 40 ------- 0 2.0 0.0 10 27
+ 1.240825 0 1 tcp 1540 ------- 0 0.0 2.0 11 29
- 1.240825 0 1 tcp 1540 ------- 0 0.0 2.0 11 29
+ 1.240825 0 1 tcp 1540 ------- 0 0.0 2.0 12 30
+ 1.240825 0 1 tcp 1540 ------- 0 0.0 2.0 13 31
- 1.240838 0 1 tcp 1540 ------- 0 0.0 2.0 12 30
- 1.24085 0 1 tcp 1540 ------- 0 0.0 2.0 13 31
r 1.240949 1 0 ack 40 ------- 0 2.0 0.0 10 28
+ 1.240949 0 1 tcp 1540 ------- 0 0.0 2.0 14 32
- 1.240949 0 1 tcp 1540 ------- 0 0.0 2.0 14 32
r 1.250838 0 1 tcp 1540 ------- 0 0.0 2.0 11 29
+ 1.250838 1 2 tcp 1540 ------- 0 0.0 2.0 11 29
- 1.250838 1 2 tcp 1540 ------- 0 0.0 2.0 11 29
r 1.25085 0 1 tcp 1540 ------- 0 0.0 2.0 12 30
+ 1.25085 1 2 tcp 1540 ------- 0 0.0 2.0 12 30
r 1.250862 0 1 tcp 1540 ------- 0 0.0 2.0 13 31
+ 1.250862 1 2 tcp 1540 ------- 0 0.0 2.0 13 31
d 1.250862 1 2 tcp 1540 ------- 0 0.0 2.0 13 31
r 1.250961 0 1 tcp 1540 ------- 0 0.0 2.0 14 32
+ 1.250961 1 2 tcp 1540 ------- 0 0.0 2.0 14 32
d 1.250961 1 2 tcp 1540 ------- 0 0.0 2.0 14 32
- 1.250961 1 2 tcp 1540 ------- 0 0.0 2.0 12 30
r 1.260961 1 2 tcp 1540 ------- 0 0.0 2.0 11 29
+ 1.260961 2 1 ack 40 ------- 0 2.0 0.0 12 33
- 1.260961 2 1 ack 40 ------- 0 2.0 0.0 12 33
r 1.261084 1 2 tcp 1540 ------- 0 0.0 2.0 12 30
+ 1.261084 2 1 ack 40 ------- 0 2.0 0.0 12 34
- 1.261084 2 1 ack 40 ------- 0 2.0 0.0 12 34
r 1.270964 2 1 ack 40 ------- 0 2.0 0.0 12 33
+ 1.270964 1 0 ack 40 ------- 0 2.0 0.0 12 33
- 1.270964 1 0 ack 40 ------- 0 2.0 0.0 12 33
r 1.271087 2 1 ack 40 ------- 0 2.0 0.0 12 34
+ 1.271087 1 0 ack 40 ------- 0 2.0 0.0 12 34
- 1.271087 1 0 ack 40 ------- 0 2.0 0.0 12 34
r 1.280964 1 0 ack 40 ------- 0 2.0 0.0 12 33
+ 1.280964 0 1 tcp 1540 ------- 0 0.0 2.0 15 35
- 1.280964 0 1 tcp 1540 ------- 0 0.0 2.0 15 35
r 1.281088 1 0 ack 40 ------- 0 2.0 0.0 12 34
+ 1.281088 0 1 tcp 1540 ------- 0 0.0 2.0 16 36
- 1.281088 0 1 tcp 1540 ------- 0 0.0 2.0 16 36
r 1.290977 0 1 tcp 1540 ------- 0 0.0 2.0 15 35
+ 1.290977 1 2 tcp 1540 ------- 0 0.0 2.0 15 35
- 1.290977 1 2 tcp 1540 ------- 0 0.0 2.0 15 35
r 1.2911 0 1 tcp 1540 ------- 0 0.0 2.0 16 36
+ 1.2911 1 2 tcp 1540 ------- 0 0.0 2.0 16 36
- 1.2911 1 2 tcp 1540 ------- 0 0.0 2.0 16 36
r 1.3011 1 2 tcp 1540 ------- 0 0.0 2.0 15 35
+ 1.3011 2 1 ack 40 ------- 0 2.0 0.0 12 37
- 1.3011 2 1 ack 40 ------- 0 2.0 0.0 12 37
r 1.301223 1 2 tcp 1540 ------- 0 0.0 2.0 16 36
+ 1.301223 2 1 ack 40 ------- 0 2.0 0.0 12 38
- 1.301223 2 1 ack 40 ------- 0 2.0 0.0 12 38
r 1.311103 2 1 ack 40 ------- 0 2.0 0.0 12 37
+ 1.311103 1 0 ack 40 ------- 0 2.0 0.0 12 37
- 1.311103 1 0 ack 40 ------- 0 2.0 0.0 12 37
r 1.311226 2 1 ack 40 ------- 0 2.0 0.0 12 38
+ 1.311226 1 0 ack 40 ------- 0 2.0 0.0 12 38
- 1.311226 1 0 ack 40 ------- 0 2.0 0.0 12 38
r 1.321104 1 0 ack 40 ------- 0 2.0 0.0 12 37
+ 1.321104 0 1 tcp 1540 ------- 0 0.0 2.0 17 39
- 1.321104 0 1 tcp 1540 ------- 0 0.0 2.0 17 39
r 1.321227 1 0 ack 40 ------- 0 2.0 0.0 12 38
r 1.331116 0 1 tcp 1540 ------- 0 0.0 2.0 17 39
+ 1.331116 1 2 tcp 1540 ------- 0 0.0 2.0 17 39
- 1.331116 1 2 tcp 1540 ------- 0 0.0 2.0 17 39
r 1.341239 1 2 tcp 1540 ------- 0 0.0 2.0 17 39
+ 1.341239 2 1 ack 40 ------- 0 2.0 0.0 12 40
- 1.341239 2 1 ack 40 ------- 0 2.0 0.0 12 40
r 1.351242 2 1 ack 40 ------- 0 2.0 0.0 12 40
+ 1.351242 1 0 ack 40 ------- 0 2.0 0.0 12 40
- 1.351242 1 0 ack 40 ------- 0 2.0 0.0 12 40
r 1.361243 1 0 ack 40 ------- 0 2.0 0.0 12 40
+ 1.480964 0 1 tcp 1540 ---A--- 0 0.0 2.0 13 41
- 1.480964 0 1 tcp 1540 ---A--- 0 0.0 2.0 13 41
r 1.490977 0 1 tcp 1540 ---A--- 0 0.0 2.0 13 41
+ 1.490977 1 2 tcp 1540 ---A--- 0 0.0 2.0 13 41
- 1.490977 1 2 tcp 1540 ---A--- 0 0.0 2.0 13 41
r 1.5011 1 2 tcp 1540 ---A--- 0 0.0 2.0 13 41
+ 1.5011 2 1 ack 40 ------- 0 2.0 0.0 13 42
- 1.5011 2 1 ack 40 ------- 0 2.0 0.0 13 42
r 1.511103 2 1 ack 40 ------- 0 2.0 0.0 13 42
+ 1.511103 1 0 ack 40 ------- 0 2.0 0.0 13 42
- 1.511103 1 0 ack 40 ------- 0 2.0 0.0 13 42
r 1.521104 1 0 ack 40 ------- 0 2.0 0.0 13 42
+ 1.521104 0 1 tcp 1540 ------- 0 0.0 2.0 14 43
- 1.521104 0 1 tcp 1540 ------- 0 0.0 2.0 14 43
+ 1.521104 0 1 tcp 1540 ------- 0 0.0 2.0 15 44
- 1.521116 0 1 tcp 1540 ------- 0 0.0 2.0 15 44
r 1.531116 0 1 tcp 1540 ------- 0 0.0 2.0 14 43
+ 1.531116 1 2 tcp 1540 ------- 0 0.0 2.0 14 43
- 1.531116 1 2 tcp 1540 ------- 0 0.0 2.0 14 43
r 1.531128 0 1 tcp 1540 ------- 0 0.0 2.0 15 44
+ 1.531128 1 2 tcp 1540 ------- 0 0.0 2.0 15 44
- 1.531239 1 2 tcp 1540 ------- 0 0.0 2.0 15 44
r 1.541239 1 2 tcp 1540 ------- 0 0.0 2.0 14 43
+ 1.541239 2 1 ack 40 ------- 0 2.0 0.0 17 45
- 1.541239 2 1 ack 40 ------- 0 2.0 0.0 17 45
r 1.541362 1 2 tcp 1540 ------- 0 0.0 2.0 15 44
+ 1.541362 2 1 ack 40 ------- 0 2.0 0.0 17 46
- 1.541362 2 1 ack 40 ------- 0 2.0 0.0 17 46
r 1.551242 2 1 ack 40 ------- 0 2.0 0.0 17 45
+ 1.551242 1 0 ack 40 ------- 0 2.0 0.0 17 45
- 1.551242 1 0 ack 40 ------- 0 2.0 0.0 17 45
r 1.551365 2 1 ack 40 ------- 0 2.0 0.0 17 46
+ 1.551365 1 0 ack 40 ------- 0 2.0 0.0 17 46
- 1.551365 1 0 ack 40 ------- 0 2.0 0.0 17 46
r 1.561243 1 0 ack 40 ------- 0 2.0 0.0 17 45
+ 1.561243 0 1 tcp 1540 ------- 0 0.0 2.0 18 47
- 1.561243 0 1 tcp 1540 ------- 0 0.0 2.0 18 47
+ 1.561243 0 1 tcp 1540 ------- 0 0.0 2.0 19 48
- 1.561255 0 1 tcp 1540 ------- 0 0.0 2.0 19 48
r 1.561366 1 0 ack 40 ------- 0 2.0 0.0 17 46
+ 1.561366 0 1 tcp 1540 ------- 0 0.0 2.0 20 49
- 1.561366 0 1 tcp 1540 ------- 0 0.0 2.0 20 49
r 1.571255 0 1 tcp 1540 ------- 0 0.0 2.0 18 47
+ 1.571255 1 2 tcp 1540 ------- 0 0.0 2.0 18 47
- 1.571255 1 2 tcp 1540 ------- 0 0.0 2.0 18 47
r 1.571267 0 1 tcp 1540 ------- 0 0.0 2.0 19 48
+ 1.571267 1 2 tcp 1540 ------- 0 0.0 2.0 19 48
r 1.571378 0 1 tcp 1540 ------- 0 0.0 2.0 20 49
+ 1.571378 1 2 tcp 1540 ------- 0 0.0 2.0 20 49
d 1.571378 1 2 tcp 1540 ------- 0 0.0 2.0 20 49
- 1.571378 1 2 tcp 1540 ------- 0 0.0 2.0 19 48
r 1.581378 1 2 tcp 1540 ------- 0 0.0 2.0 18 47
+ 1.581378 2 1 ack 40 ------- 0 2.0 0.0 18 50
- 1.581378 2 1 ack 40 ------- 0 2.0 0.0 18 50
r 1.581501 1 2 tcp 1540 ------- 0 0.0 2.0 19 48
+ 1.581501 2 1 ack 40 ------- 0 2.0 0.0 19 51
- 1.581501 2 1 ack 40 ------- 0 2.0 0.0 19 51
r 1.591381 2 1 ack 40 ------- 0 2.0 0.0 18 50
+ 1.591381 1 0 ack 40 ------- 0 2.0 0.0 18 50
- 1.591381 1 0 ack 40 ------- 0 2.0 0.0 18 50
r 1.591504 2 1 ack 40 ------- 0 2.0 0.0 19 51
+ 1.591504 1 0 ack 40 ------- 0 2.0 0.0 19 51
- 1.591504 1 0 ack 40 ------- 0 2.0 0.0 19 51
r 1.601382 1 0 ack 40 ------- 0 2.0 0.0 18 50
r 1.601505 1 0 ack 40 ------- 0 2.0 0.0 19 51
+ 1.601505 0 1 tcp 1540 ------- 0 0.0 2.0 21 52
- 1.601505 0 1 tcp 1540 ------- 0 0.0 2.0 21 52
+ 1.601505 0 1 tcp 1540 ------- 0 0.0 2.0 22 53
- 1.601517 0 1 tcp 1540 ------- 0 0.0 2.0 22 53
r 1.611517 0 1 tcp 1540 ------- 0 0.0 2.0 21 52
+ 1.611517 1 2 tcp 1540 ------- 0 0.0 2.0 21 52
- 1.611517 1 2 tcp 1540 ------- 0 0.0 2.0 21 52
r 1.611529 0 1 tcp 1540 ------- 0 0.0 2.0 22 53
+ 1.611529 1 2 tcp 1540 ------- 0 0.0 2.0 22 53
- 1.61164 1 2 tcp 1540 ------- 0 0.0 2.0 22 53
r 1.62164 1 2 tcp 1540 ------- 0 0.0 2.0 21 52
+ 1.62164 2 1 ack 40 ------- 0 2.0 0.0 19 54
- 1.62164 2 1 ack 40 ------- 0 2.0 0.0 19 54
r 1.621764 1 2 tcp 1540 ------- 0 0.0 2.0 22 53
+ 1.621764 2 1 ack 40 ------- 0 2.0 0.0 19 55
- 1.621764 2 1 ack 40 ------- 0 2.0 0.0 19 55
r 1.631644 2 1 ack 40 ------- 0 2.0 0.0 19 54
+ 1.631644 1 0 ack 40 ------- 0 2.0 0.0 19 54
- 1.631644 1 0 ack 40 ------- 0 2.0 0.0 19 54
r 1.631767 2 1 ack 40 ------- 0 2.0 0.0 19 55
+ 1.631767 1 0 ack 40 ------- 0 2.0 0.0 19 55
- 1.631767 1 0 ack 40 ------- 0 2.0 0.0 19 55
r 1.641644 1 0 ack 40 ------- 0 2.0 0.0 19 54
+ 1.641644 0 1 tcp 1540 ------- 0 0.0 2.0 23 56
- 1.641644 0 1 tcp 1540 ------- 0 0.0 2.0 23 56
r 1.641767 1 0 ack 40 ------- 0 2.0 0.0 19 55
+ 1.641767 0 1 tcp 1540 ------- 0 0.0 2.0 24 57
- 1.641767 0 1 tcp 1540 ------- 0 0.0 2.0 24 57
r 1.651656 0 1 tcp 1540 ------- 0 0.0 2.0 23 56
+ 1.651656 1 2 tcp 1540 ------- 0 0.0 2.0 23 56
- 1.651656 1 2 tcp 1540 ------- 0 0.0 2.0 23 56
r 1.651779 0 1 tcp 1540 ------- 0 0.0 2.0 24 57
+ 1.651779 1 2 tcp 1540 ------- 0 0.0 2.0 24 57
- 1.651779 1 2 tcp 1540 ------- 0 0.0 2.0 24 57
r 1.661779 1 2 tcp 1540 ------- 0 0.0 2.0 23 56
+ 1.661779 2 1 ack 40 ------- 0 2.0 0.0 19 58
- 1.661779 2 1 ack 40 ------- 0 2.0 0.0 19 58
r 1.661903 1 2 tcp 1540 ------- 0 0.0 2.0 24 57
+ 1.661903 2 1 ack 40 ------- 0 2.0 0.0 19 59
- 1.661903 2 1 ack 40 ------- 0 2.0 0.0 19 59
r 1.671783 2 1 ack 40 ------- 0 2.0 0.0 19 58
+ 1.671783 1 0 ack 40 ------- 0 2.0 0.0 19 58
- 1.671783 1 0 ack 40 ------- 0 2.0 0.0 19 58
r 1.671906 2 1 ack 40 ------- 0 2.0 0.0 19 59
+ 1.671906 1 0 ack 40 ------- 0 2.0 0.0 19 59
- 1.671906 1 0 ack 40 ------- 0 2.0 0.0 19 59
r 1.681783 1 0 ack 40 ------- 0 2.0 0.0 19 58
+ 1.681783 0 1 tcp 1540 ---A--- 0 0.0 2.0 20 60
- 1.681783 0 1 tcp 1540 ---A--- 0 0.0 2.0 20 60
r 1.681906 1 0 ack 40 ------- 0 2.0 0.0 19 59
r 1.691795 0 1 tcp 1540 ---A--- 0 0.0 2.0 20 60
+ 1.691795 1 2 tcp 1540 ---A--- 0 0.0 2.0 20 60
- 1.691795 1 2 tcp 1540 ---A--- 0 0.0 2.0 20 60
r 1.701918 1 2 tcp 1540 ---A--- 0 0.0 2.0 20 60
+ 1.701918 2 1 ack 40 ------- 0 2.0 0.0 24 61
- 1.701918 2 1 ack 40 ------- 0 2.0 0.0 24 61
r 1.711922 2 1 ack 40 ------- 0 2.0 0.0 24 61
+ 1.711922 1 0 ack 40 ------- 0 2.0 0.0 24 61
- 1.711922 1 0 ack 40 ------- 0 2.0 0.0 24 61
r 1.721922 1 0 ack 40 ------- 0 2.0 0.0 24 61
+ 1.721922 0 1 tcp 1540 ------- 0 0.0 2.0 25 62
- 1.721922 0 1 tcp 1540 ------- 0 0.0 2.0 25 62
+ 1.721922 0 1 tcp 1540 ------- 0 0.0 2.0 26 63
- 1.721934 0 1 tcp 1540 ------- 0 0.0 2.0 26 63
r 1.731934 0 1 tcp 1540 ------- 0 0.0 2.0 25 62
+ 1.731934 1 2 tcp 1540 ------- 0 0.0 2.0 25 62
- 1.731934 1 2 tcp 1540 ------- 0 0.0 2.0 25 62
r 1.731947 0 1 tcp 1540 ------- 0 0.0 2.0 26 63
+ 1.731947 1 2 tcp 1540 ------- 0 0.0 2.0 26 63
- 1.732057 1 2 tcp 1540 ------- 0 0.0 2.0 26 63
r 1.742057 1 2 tcp 1540 ------- 0 0.0 2.0 25 62
+ 1.742057 2 1 ack 40 ------- 0 2.0 0.0 25 64
- 1.742057 2 1 ack 40 ------- 0 2.0 0.0 25 64
r 1.742181 1 2 tcp 1540 ------- 0 0.0 2.0 26 63
+ 1.742181 2 1 ack 40 ------- 0 2.0 0.0 26 65
- 1.742181 2 1 ack 40 ------- 0 2.0 0.0 26 65
r 1.752061 2 1 ack 40 ------- 0 2.0 0.0 25 64
+ 1.752061 1 0 ack 40 ------- 0 2.0 0.0 25 64
- 1.752061 1 0 ack 40 ------- 0 2.0 0.0 25 64
r 1.752184 2 1 ack 40 ------- 0 2.0 0.0 26 65
+ 1.752184 1 0 ack 40 ------- 0 2.0 0.0 26 65
- 1.752184 1 0 ack 40 ------- 0 2.0 0.0 26 65
r 1.762061 1 0 ack 40 ------- 0 2.0 0.0 25 64
+ 1.762061 0 1 tcp 1540 ------- 0 0.0 2.0 27 66
- 1.762061 0 1 tcp 1540 ------- 0 0.0 2.0 27 66
r 1.762184 1 0 ack 40 ------- 0 2.0 0.0 26 65
+ 1.762184 0 1 tcp 1540 ------- 0 0.0 2.0 28 67
- 1.762184 0 1 tcp 1540 ------- 0 0.0 2.0 28 67
r 1.772073 0 1 tcp 1540 ------- 0 0.0 2.0 27 66
+ 1.772073 1 2 tcp 1540 ------- 0 0.0 2.0 27 66
- 1.772073 1 2 tcp 1540 ------- 0 0.0 2.0 27 66
r 1.772196 0 1 tcp 1540 ------- 0 0.0 2.0 28 67
+ 1.772196 1 2 tcp 1540 ------- 0 0.0 2.0 28 67
- 1.772196 1 2 tcp 1540 ------- 0 0.0 2.0 28 67
r 1.782196 1 2 tcp 1540 ------- 0 0.0 2.0 27 66
+ 1.782196 2 1 ack 40 ------- 0 2.0 0.0 27 68
- 1.782196 2 1 ack 40 ------- 0 2.0 0.0 27 68
r 1.78232 1 2 tcp 1540 ------- 0 0.0 2.0 28 67
+ 1.78232 2 1 ack 40 ------- 0 2.0 0.0 28 69
- 1.78232 2 1 ack 40 ------- 0 2.0 0.0 28 69
r 1.7922 2 1 ack 40 ------- 0 2.0 0.0 27 68
+ 1.7922 1 0 ack 40 ------- 0 2.0 0.0 27 68
- 1.7922 1 0 ack 40 ------- 0 2.0 0.0 27 68
r 1.792323 2 1 ack 40 ------- 0 2.0 0.0 28 69
+ 1.792323 1 0 ack 40 ------- 0 2.0 0.0 28 69
- 1.792323 1 0 ack 40 ------- 0 2.0 0.0 28 69
r 1.8022 1 0 ack 40 ------- 0 2.0 0.0 27 68
+ 1.8022 0 1 tcp 1540 ------- 0 0.0 2.0 29 70
- 1.8022 0 1 tcp 1540 ------- 0 0.0 2.0 29 70
+ 1.8022 0 1 tcp 1540 ------- 0 0.0 2.0 30 71
- 1.802212 0 1 tcp 1540 ------- 0 0.0 2.0 30 71
r 1.802323 1 0 ack 40 ------- 0 2.0 0.0 28 69
+ 1.802323 0 1 tcp 1540 ------- 0 0.0 2.0 31 72
- 1.802323 0 1 tcp 1540 ------- 0 0.0 2.0 31 72
r 1.812212 0 1 tcp 1540 ------- 0 0.0 2.0 29 70
+ 1.812212 1 2 tcp 1540 ------- 0 0.0 2.0 29 70
- 1.812212 1 2 tcp 1540 ------- 0 0.0 2.0 29 70
r 1.812225 0 1 tcp 1540 ------- 0 0.0 2.0 30 71
+ 1.812225 1 2 tcp 1540 ------- 0 0.0 2.0 30 71
r 1.812336 0 1 tcp 1540 ------- 0 0.0 2.0 31 72
+ 1.812336 1 2 tcp 1540 ------- 0 0.0 2.0 31 72
d 1.812336 1 2 tcp 1540 ------- 0 0.0 2.0 31 72
- 1.812336 1 2 tcp 1540 ------- 0 0.0 2.0 30 71
r 1.822336 1 2 tcp 1540 ------- 0 0.0 2.0 29 70
+ 1.822336 2 1 ack 40 ------- 0 2.0 0.0 29 73
- 1.822336 2 1 ack 40 ------- 0 2.0 0.0 29 73
r 1.822459 1 2 tcp 1540 ------- 0 0.0 2.0 30 71
+ 1.822459 2 1 ack 40 ------- 0 2.0 0.0 30 74
- 1.822459 2 1 ack 40 ------- 0 2.0 0.0 30 74
r 1.832339 2 1 ack 40 ------- 0 2.0 0.0 29 73
+ 1.832339 1 0 ack 40 ------- 0 2.0 0.0 29 73
- 1.832339 1 0 ack 40 ------- 0 2.0 0.0 29 73
r 1.832462 2 1 ack 40 ------- 0 2.0 0.0 30 74
+ 1.832462 1 0 ack 40 ------- 0 2.0 0.0 30 74
- 1.832462 1 0 ack 40 ------- 0 2.0 0.0 30 74
r 1.842339 1 0 ack 40 ------- 0 2.0 0.0 29 73
+ 1.842339 0 1 tcp 1540 ------- 0 0.0 2.0 32 75
- 1.842339 0 1 tcp 1540 ------- 0 0.0 2.0 32 75
r 1.842462 1 0 ack 40 ------- 0 2.0 0.0 30 74
+ 1.842462 0 1 tcp 1540 ------- 0 0.0 2.0 33 76
- 1.842462 0 1 tcp 1540 ------- 0 0.0 2.0 33 76
+ 1.842462 0 1 tcp 1540 ------- 0 0.0 2.0 34 77
- 1.842475 0 1 tcp 1540 ------- 0 0.0 2.0 34 77
r 1.852351 0 1 tcp 1540 ------- 0 0.0 2.0 32 75
+ 1.852351 1 2 tcp 1540 ------- 0 0.0 2.0 32 75
- 1.852351 1 2 tcp 1540 ------- 0 0.0 2.0 32 75
r 1.852475 0 1 tcp 1540 ------- 0 0.0 2.0 33 76
+ 1.852475 1 2 tcp 1540 ------- 0 0.0 2.0 33 76
- 1.852475 1 2 tcp 1540 ------- 0 0.0 2.0 33 76
r 1.852487 0 1 tcp 1540 ------- 0 0.0 2.0 34 77
+ 1.852487 1 2 tcp 1540 ------- 0 0.0 2.0 34 77
- 1.852598 1 2 tcp 1540 ------- 0 0.0 2.0 34 77
r 1.862475 1 2 tcp 1540 ------- 0 0.0 2.0 32 75
+ 1.862475 2 1 ack 40 ------- 0 2.0 0.0 30 78
- 1.862475 2 1 ack 40 ------- 0 2.0 0.0 30 78
r 1.862598 1 2 tcp 1540 ------- 0 0.0 2.0 33 76
+ 1.862598 2 1 ack 40 ------- 0 2.0 0.0 30 79
- 1.862598 2 1 ack 40 ------- 0 2.0 0.0 30 79
r 1.862721 1 2 tcp 1540 ------- 0 0.0 2.0 34 77
+ 1.862721 2 1 ack 40 ------- 0 2.0 0.0 30 80
- 1.862721 2 1 ack 40 ------- 0 2.0 0.0 30 80
r 1.872478 2 1 ack 40 ------- 0 2.0 0.0 30 78
+ 1.872478 1 0 ack 40 ------- 0 2.0 0.0 30 78
- 1.872478 1 0 ack 40 ------- 0 2.0 0.0 30 78
r 1.872601 2 1 ack 40 ------- 0 2.0 0.0 30 79
+ 1.872601 1 0 ack 40 ------- 0 2.0 0.0 30 79
- 1.872601 1 0 ack 40 ------- 0 2.0 0.0 30 79
r 1.872724 2 1 ack 40 ------- 0 2.0 0.0 30 80
+ 1.872724 1 0 ack 40 ------- 0 2.0 0.0 30 80
- 1.872724 1 0 ack 40 ------- 0 2.0 0.0 30 80
r 1.882478 1 0 ack 40 ------- 0 2.0 0.0 30 78
+ 1.882478 0 1 tcp 1540 ------- 0 0.0 2.0 35 81
- 1.882478 0 1 tcp 1540 ------- 0 0.0 2.0 35 81
r 1.882601 1 0 ack 40 ------- 0 2.0 0.0 30 79
+ 1.882601 0 1 tcp 1540 ------- 0 0.0 2.0 36 82
- 1.882601 0 1 tcp 1540 ------- 0 0.0 2.0 36 82
r 1.882724 1 0 ack 40 ------- 0 2.0 0.0 30 80
+ 1.882724 0 1 tcp 1540 ---A--- 0 0.0 2.0 31 83
- 1.882724 0 1 tcp 1540 ---A--- 0 0.0 2.0 31 83
r 1.89249 0 1 tcp 1540 ------- 0 0.0 2.0 35 81
+ 1.89249 1 2 tcp 1540 ------- 0 0.0 2.0 35 81
- 1.89249 1 2 tcp 1540 ------- 0 0.0 2.0 35 81
r 1.892614 0 1 tcp 1540 ------- 0 0.0 2.0 36 82
+ 1.892614 1 2 tcp 1540 ------- 0 0.0 2.0 36 82
- 1.892614 1 2 tcp 1540 ------- 0 0.0 2.0 36 82
r 1.892737 0 1 tcp 1540 ---A--- 0 0.0 2.0 31 83
+ 1.892737 1 2 tcp 1540 ---A--- 0 0.0 2.0 31 83
- 1.892737 1 2 tcp 1540 ---A--- 0 0.0 2.0 31 83
r 1.902614 1 2 tcp 1540 ------- 0 0.0 2.0 35 81
+ 1.902614 2 1 ack 40 ------- 0 2.0 0.0 30 84
- 1.902614 2 1 ack 40 ------- 0 2.0 0.0 30 84
r 1.902737 1 2 tcp 1540 ------- 0 0.0 2.0 36 82
+ 1.902737 2 1 ack 40 ------- 0 2.0 0.0 30 85
- 1.902737 2 1 ack 40 ------- 0 2.0 0.0 30 85
r 1.90286 1 2 tcp 1540 ---A--- 0 0.0 2.0 31 83
+ 1.90286 2 1 ack 40 ------- 0 2.0 0.0 36 86
- 1.90286 2 1 ack 40 ------- 0 2.0 0.0 36 86
r 1.912617 2 1 ack 40 ------- 0 2.0 0.0 30 84
+ 1.912617 1 0 ack 40 ------- 0 2.0 0.0 30 84
- 1.912617 1 0 ack 40 ------- 0 2.0 0.0 30 84
r 1.91274 2 1 ack 40 ------- 0 2.0 0.0 30 85
+ 1.91274 1 0 ack 40 ------- 0 2.0 0.0 30 85
- 1.91274 1 0 ack 40 ------- 0 2.0 0.0 30 85
r 1.912863 2 1 ack 40 ------- 0 2.0 0.0 36 86
+ 1.912863 1 0 ack 40 ------- 0 2.0 0.0 36 86
- 1.912863 1 0 ack 40 ------- 0 2.0 0.0 36 86
r 1.922617 1 0 ack 40 ------- 0 2.0 0.0 30 84
r 1.92274 1 0 ack 40 ------- 0 2.0 0.0 30 85
r 1.922864 1 0 ack 40 ------- 0 2.0 0.0 36 86
+ 1.922864 0 1 tcp 1540 ------- 0 0.0 2.0 37 87
- 1.922864 0 1 tcp 1540 ------- 0 0.0 2.0 37 87
+ 1.922864 0 1 tcp 1540 ------- 0 0.0 2.0 38 88
- 1.922876 0 1 tcp 1540 ------- 0 0.0 2.0 38 88
r 1.932876 0 1 tcp 1540 ------- 0 0.0 2.0 37 87
+ 1.932876 1 2 tcp 1540 ------- 0 0.0 2.0 37 87
- 1.932876 1 2 tcp 1540 ------- 0 0.0 2.0 37 87
r 1.932888 0 1 tcp 1540 ------- 0 0.0 2.0 38 88
+ 1.932888 1 2 tcp 1540 ------- 0 0.0 2.0 38 88
- 1.932999 1 2 tcp 1540 ------- 0 0.0 2.0 38 88
r 1.942999 1 2 tcp 1540 ------- 0 0.0 2.0 37 87
+ 1.942999 2 1 ack 40 ------- 0 2.0 0.0 37 89
- 1.942999 2 1 ack 40 ------- 0 2.0 0.0 37 89
r 1.943122 1 2 tcp 1540 ------- 0 0.0 2.0 38 88
+ 1.943122 2 1 ack 40 ------- 0 2.0 0.0 38 90
- 1.943122 2 1 ack 40 ------- 0 2.0 0.0 38 90
r 1.953002 2 1 ack 40 ------- 0 2.0 0.0 37 89
+ 1.953002 1 0 ack 40 ------- 0 2.0 0.0 37 89
- 1.953002 1 0 ack 40 ------- 0 2.0 0.0 37 89
r 1.953125 2 1 ack 40 ------- 0 2.0 0.0 38 90
+ 1.953125 1 0 ack 40 ------- 0 2.0 0.0 38 90
- 1.953125 1 0 ack 40 ------- 0 2.0 0.0 38 90
r 1.963003 1 0 ack 40 ------- 0 2.0 0.0 37 89
+ 1.963003 0 1 tcp 1540 ------- 0 0.0 2.0 39 91
- 1.963003 0 1 tcp 1540 ------- 0 0.0 2.0 39 91
r 1.963126 1 0 ack 40 ------- 0 2.0 0.0 38 90
+ 1.963126 0 1 tcp 1540 ------- 0 0.0 2.0 40 92
- 1.963126 0 1 tcp 1540 ------- 0 0.0 2.0 40 92
r 1.973015 0 1 tcp 1540 ------- 0 0.0 2.0 39 91
+ 1.973015 1 2 tcp 1540 ------- 0 0.0 2.0 39 91
- 1.973015 1 2 tcp 1540 ------- 0 0.0 2.0 39 91
r 1.973138 0 1 tcp 1540 ------- 0 0.0 2.0 40 92
+ 1.973138 1 2 tcp 1540 ------- 0 0.0 2.0 40 92
- 1.973138 1 2 tcp 1540 ------- 0 0.0 2.0 40 92
r 1.983138 1 2 tcp 1540 ------- 0 0.0 2.0 39 91
+ 1.983138 2 1 ack 40 ------- 0 2.0 0.0 39 93
- 1.983138 2 1 ack 40 ------- 0 2.0 0.0 39 93
r 1.983261 1 2 tcp 1540 ------- 0 0.0 2.0 40 92
+ 1.983261 2 1 ack 40 ------- 0 2.0 0.0 40 94
- 1.983261 2 1 ack 40 ------- 0 2.0 0.0 40 94
r 1.993141 2 1 ack 40 ------- 0 2.0 0.0 39 93
+ 1.993141 1 0 ack 40 ------- 0 2.0 0.0 39 93
- 1.993141 1 0 ack 40 ------- 0 2.0 0.0 39 93
r 1.993264 2 1 ack 40 ------- 0 2.0 0.0 40 94
+ 1.993264 1 0 ack 40 ------- 0 2.0 0.0 40 94
- 1.993264 1 0 ack 40 ------- 0 2.0 0.0 40 94
r 2.003142 1 0 ack 40 ------- 0 2.0 0.0 39 93
r 2.003265 1 0 ack 40 ------- 0 2.0 0.0 40 94
