+ 1 0 1 tcp 40 ------- 0 0.0 2.0 0 0
- 1 0 1 tcp 40 ------- 0 0.0 2.0 0 0
r 1.01 0 1 tcp 40 ------- 0 0.0 2.0 0 0
+ 1.01 1 2 tcp 40 ------- 0 0.0 2.0 0 0
d 1.01 1 2 tcp 40 ------- 0 0.0 2.0 0 0
