s 1.000000000 _0_ AGT  --- 0 tcp 40 [0 0 0 0] ------- [0:0 3:0 32 0] [0 0] 0 0
r 1.000000000 _0_ RTR  --- 0 tcp 40 [0 0 0 0] ------- [0:0 3:0 32 0] [0 0] 0 0
s 1.000000000 _2_ AGT  --- 1 tcp 40 [0 0 0 0] ------- [2:0 1:0 32 0] [0 0] 0 0
r 1.000000000 _2_ RTR  --- 1 tcp 40 [0 0 0 0] ------- [2:0 1:0 32 0] [0 0] 0 0
s 1.000000000 _0_ RTR  --- 0 AODV 48 [0 0 0 0] ------- [0:255 -1:255 30 0] [0x2 1 1 [3 0] [0 4]] (REQUEST)
s 1.000000000 _2_ RTR  --- 0 AODV 48 [0 0 0 0] ------- [2:255 -1:255 30 0] [0x2 1 1 [1 0] [2 4]] (REQUEST)
s 1.000375000 _2_ MAC  --- 0 AODV 106 [0 ffffffff 2 800] ------- [2:255 -1:255 30 0] [0x2 1 1 [1 0] [2 4]] (REQUEST)
s 1.000635000 _0_ MAC  --- 0 AODV 106 [0 ffffffff 0 800] ------- [0:255 -1:255 30 0] [0x2 1 1 [3 0] [0 4]] (REQUEST)
r 1.001223638 _4_ MAC  --- 0 AODV 48 [0 ffffffff 2 800] ------- [2:255 -1:255 30 0] [0x2 1 1 [1 0] [2 4]] (REQUEST)
r 1.001248638 _4_ RTR  --- 0 AODV 48 [0 ffffffff 2 800] ------- [2:255 -1:255 30 0] [0x2 1 1 [1 0] [2 4]] (REQUEST)
r 1.001483614 _5_ MAC  --- 0 AODV 48 [0 ffffffff 0 800] ------- [0:255 -1:255 30 0] [0x2 1 1 [3 0] [0 4]] (REQUEST)
r 1.001508614 _5_ RTR  --- 0 AODV 48 [0 ffffffff 0 800] ------- [0:255 -1:255 30 0] [0x2 1 1 [3 0] [0 4]] (REQUEST)
s 1.009240193 _4_ RTR  --- 0 AODV 48 [0 ffffffff 2 800] ------- [4:255 -1:255 29 0] [0x2 2 1 [1 0] [2 4]] (REQUEST)
s 1.009555193 _4_ MAC  --- 0 AODV 106 [0 ffffffff 4 800] ------- [4:255 -1:255 29 0] [0x2 2 1 [1 0] [2 4]] (REQUEST)
s 1.009673375 _5_ RTR  --- 0 AODV 48 [0 ffffffff 0 800] ------- [5:255 -1:255 29 0] [0x2 2 1 [3 0] [0 4]] (REQUEST)
s 1.010108375 _5_ MAC  --- 0 AODV 106 [0 ffffffff 5 800] ------- [5:255 -1:255 29 0] [0x2 2 1 [3 0] [0 4]] (REQUEST)
r 1.010403764 _3_ MAC  --- 0 AODV 48 [0 ffffffff 4 800] ------- [4:255 -1:255 29 0] [0x2 2 1 [1 0] [2 4]] (REQUEST)
r 1.010403831 _2_ MAC  --- 0 AODV 48 [0 ffffffff 4 800] ------- [4:255 -1:255 29 0] [0x2 2 1 [1 0] [2 4]] (REQUEST)
r 1.010403968 _7_ MAC  --- 0 AODV 48 [0 ffffffff 4 800] ------- [4:255 -1:255 29 0] [0x2 2 1 [1 0] [2 4]] (REQUEST)
r 1.010428764 _3_ RTR  --- 0 AODV 48 [0 ffffffff 4 800] ------- [4:255 -1:255 29 0] [0x2 2 1 [1 0] [2 4]] (REQUEST)
r 1.010428831 _2_ RTR  --- 0 AODV 48 [0 ffffffff 4 800] ------- [4:255 -1:255 29 0] [0x2 2 1 [1 0] [2 4]] (REQUEST)
r 1.010428968 _7_ RTR  --- 0 AODV 48 [0 ffffffff 4 800] ------- [4:255 -1:255 29 0] [0x2 2 1 [1 0] [2 4]] (REQUEST)
r 1.010956989 _0_ MAC  --- 0 AODV 48 [0 ffffffff 5 800] ------- [5:255 -1:255 29 0] [0x2 2 1 [3 0] [0 4]] (REQUEST)
r 1.010957066 _1_ MAC  --- 0 AODV 48 [0 ffffffff 5 800] ------- [5:255 -1:255 29 0] [0x2 2 1 [3 0] [0 4]] (REQUEST)
r 1.010957144 _6_ MAC  --- 0 AODV 48 [0 ffffffff 5 800] ------- [5:255 -1:255 29 0] [0x2 2 1 [3 0] [0 4]] (REQUEST)
r 1.010981989 _0_ RTR  --- 0 AODV 48 [0 ffffffff 5 800] ------- [5:255 -1:255 29 0] [0x2 2 1 [3 0] [0 4]] (REQUEST)
r 1.010982066 _1_ RTR  --- 0 AODV 48 [0 ffffffff 5 800] ------- [5:255 -1:255 29 0] [0x2 2 1 [3 0] [0 4]] (REQUEST)
r 1.010982144 _6_ RTR  --- 0 AODV 48 [0 ffffffff 5 800] ------- [5:255 -1:255 29 0] [0x2 2 1 [3 0] [0 4]] (REQUEST)
s 1.012070422 _7_ RTR  --- 0 AODV 48 [0 ffffffff 4 800] ------- [7:255 -1:255 28 0] [0x2 3 1 [1 0] [2 4]] (REQUEST)
s 1.012120227 _6_ RTR  --- 0 AODV 48 [0 ffffffff 5 800] ------- [6:255 -1:255 28 0] [0x2 3 1 [3 0] [0 4]] (REQUEST)
s 1.012355227 _6_ MAC  --- 0 AODV 106 [0 ffffffff 6 800] ------- [6:255 -1:255 28 0] [0x2 3 1 [3 0] [0 4]] (REQUEST)
r 1.013203744 _8_ MAC  --- 0 AODV 48 [0 ffffffff 6 800] ------- [6:255 -1:255 28 0] [0x2 3 1 [3 0] [0 4]] (REQUEST)
r 1.013203996 _5_ MAC  --- 0 AODV 48 [0 ffffffff 6 800] ------- [6:255 -1:255 28 0] [0x2 3 1 [3 0] [0 4]] (REQUEST)
r 1.013228744 _8_ RTR  --- 0 AODV 48 [0 ffffffff 6 800] ------- [6:255 -1:255 28 0] [0x2 3 1 [3 0] [0 4]] (REQUEST)
r 1.013228996 _5_ RTR  --- 0 AODV 48 [0 ffffffff 6 800] ------- [6:255 -1:255 28 0] [0x2 3 1 [3 0] [0 4]] (REQUEST)
s 1.013658412 _7_ MAC  --- 0 AODV 106 [0 ffffffff 7 800] ------- [7:255 -1:255 28 0] [0x2 3 1 [1 0] [2 4]] (REQUEST)
s 1.014170132 _8_ RTR  --- 0 AODV 48 [0 ffffffff 6 800] ------- [8:255 -1:255 27 0] [0x2 4 1 [3 0] [0 4]] (REQUEST)
r 1.014507096 _8_ MAC  --- 0 AODV 48 [0 ffffffff 7 800] ------- [7:255 -1:255 28 0] [0x2 3 1 [1 0] [2 4]] (REQUEST)
r 1.014507188 _4_ MAC  --- 0 AODV 48 [0 ffffffff 7 800] ------- [7:255 -1:255 28 0] [0x2 3 1 [1 0] [2 4]] (REQUEST)
r 1.014532096 _8_ RTR  --- 0 AODV 48 [0 ffffffff 7 800] ------- [7:255 -1:255 28 0] [0x2 3 1 [1 0] [2 4]] (REQUEST)
r 1.014532188 _4_ RTR  --- 0 AODV 48 [0 ffffffff 7 800] ------- [7:255 -1:255 28 0] [0x2 3 1 [1 0] [2 4]] (REQUEST)
s 1.014877096 _8_ MAC  --- 0 AODV 106 [0 ffffffff 8 800] ------- [8:255 -1:255 27 0] [0x2 4 1 [3 0] [0 4]] (REQUEST)
r 1.015725612 _6_ MAC  --- 0 AODV 48 [0 ffffffff 8 800] ------- [8:255 -1:255 27 0] [0x2 4 1 [3 0] [0 4]] (REQUEST)
r 1.015725779 _7_ MAC  --- 0 AODV 48 [0 ffffffff 8 800] ------- [8:255 -1:255 27 0] [0x2 4 1 [3 0] [0 4]] (REQUEST)
r 1.015750612 _6_ RTR  --- 0 AODV 48 [0 ffffffff 8 800] ------- [8:255 -1:255 27 0] [0x2 4 1 [3 0] [0 4]] (REQUEST)
r 1.015750779 _7_ RTR  --- 0 AODV 48 [0 ffffffff 8 800] ------- [8:255 -1:255 27 0] [0x2 4 1 [3 0] [0 4]] (REQUEST)
s 1.017112975 _8_ RTR  --- 0 AODV 48 [0 ffffffff 7 800] ------- [8:255 -1:255 27 0] [0x2 4 1 [1 0] [2 4]] (REQUEST)
s 1.017382743 _1_ RTR  --- 0 AODV 48 [0 ffffffff 5 800] ------- [1:255 -1:255 28 0] [0x2 3 1 [3 0] [0 4]] (REQUEST)
s 1.017627975 _8_ MAC  --- 0 AODV 106 [0 ffffffff 8 800] ------- [8:255 -1:255 27 0] [0x2 4 1 [1 0] [2 4]] (REQUEST)
r 1.018476492 _6_ MAC  --- 0 AODV 48 [0 ffffffff 8 800] ------- [8:255 -1:255 27 0] [0x2 4 1 [1 0] [2 4]] (REQUEST)
r 1.018476658 _7_ MAC  --- 0 AODV 48 [0 ffffffff 8 800] ------- [8:255 -1:255 27 0] [0x2 4 1 [1 0] [2 4]] (REQUEST)
r 1.018501492 _6_ RTR  --- 0 AODV 48 [0 ffffffff 8 800] ------- [8:255 -1:255 27 0] [0x2 4 1 [1 0] [2 4]] (REQUEST)
r 1.018501658 _7_ RTR  --- 0 AODV 48 [0 ffffffff 8 800] ------- [8:255 -1:255 27 0] [0x2 4 1 [1 0] [2 4]] (REQUEST)
s 1.018791999 _3_ RTR  --- 0 AODV 48 [0 ffffffff 4 800] ------- [3:255 -1:255 28 0] [0x2 3 1 [1 0] [2 4]] (REQUEST)
s 1.018911146 _1_ MAC  --- 0 AODV 106 [0 ffffffff 1 800] ------- [1:255 -1:255 28 0] [0x2 3 1 [3 0] [0 4]] (REQUEST)
s 1.019406999 _3_ MAC  --- 0 AODV 106 [0 ffffffff 3 800] ------- [3:255 -1:255 28 0] [0x2 3 1 [1 0] [2 4]] (REQUEST)
r 1.019759838 _5_ MAC  --- 0 AODV 48 [0 ffffffff 1 800] ------- [1:255 -1:255 28 0] [0x2 3 1 [3 0] [0 4]] (REQUEST)
r 1.019784838 _5_ RTR  --- 0 AODV 48 [0 ffffffff 1 800] ------- [1:255 -1:255 28 0] [0x2 3 1 [3 0] [0 4]] (REQUEST)
r 1.020255571 _4_ MAC  --- 0 AODV 48 [0 ffffffff 3 800] ------- [3:255 -1:255 28 0] [0x2 3 1 [1 0] [2 4]] (REQUEST)
r 1.020280571 _4_ RTR  --- 0 AODV 48 [0 ffffffff 3 800] ------- [3:255 -1:255 28 0] [0x2 3 1 [1 0] [2 4]] (REQUEST)
s 1.020937267 _7_ RTR  --- 0 AODV 48 [0 ffffffff 8 800] ------- [7:255 -1:255 26 0] [0x2 5 1 [3 0] [0 4]] (REQUEST)
s 1.021312267 _7_ MAC  --- 0 AODV 106 [0 ffffffff 7 800] ------- [7:255 -1:255 26 0] [0x2 5 1 [3 0] [0 4]] (REQUEST)
r 1.022160950 _8_ MAC  --- 0 AODV 48 [0 ffffffff 7 800] ------- [7:255 -1:255 26 0] [0x2 5 1 [3 0] [0 4]] (REQUEST)
r 1.022161042 _4_ MAC  --- 0 AODV 48 [0 ffffffff 7 800] ------- [7:255 -1:255 26 0] [0x2 5 1 [3 0] [0 4]] (REQUEST)
r 1.022185950 _8_ RTR  --- 0 AODV 48 [0 ffffffff 7 800] ------- [7:255 -1:255 26 0] [0x2 5 1 [3 0] [0 4]] (REQUEST)
r 1.022186042 _4_ RTR  --- 0 AODV 48 [0 ffffffff 7 800] ------- [7:255 -1:255 26 0] [0x2 5 1 [3 0] [0 4]] (REQUEST)
s 1.026899744 _6_ RTR  --- 0 AODV 48 [0 ffffffff 8 800] ------- [6:255 -1:255 26 0] [0x2 5 1 [1 0] [2 4]] (REQUEST)
s 1.027054744 _6_ MAC  --- 0 AODV 106 [0 ffffffff 6 800] ------- [6:255 -1:255 26 0] [0x2 5 1 [1 0] [2 4]] (REQUEST)
r 1.027903261 _8_ MAC  --- 0 AODV 48 [0 ffffffff 6 800] ------- [6:255 -1:255 26 0] [0x2 5 1 [1 0] [2 4]] (REQUEST)
r 1.027903513 _5_ MAC  --- 0 AODV 48 [0 ffffffff 6 800] ------- [6:255 -1:255 26 0] [0x2 5 1 [1 0] [2 4]] (REQUEST)
r 1.027928261 _8_ RTR  --- 0 AODV 48 [0 ffffffff 6 800] ------- [6:255 -1:255 26 0] [0x2 5 1 [1 0] [2 4]] (REQUEST)
r 1.027928513 _5_ RTR  --- 0 AODV 48 [0 ffffffff 6 800] ------- [6:255 -1:255 26 0] [0x2 5 1 [1 0] [2 4]] (REQUEST)
s 1.031235497 _4_ RTR  --- 0 AODV 48 [0 ffffffff 7 800] ------- [4:255 -1:255 25 0] [0x2 6 1 [3 0] [0 4]] (REQUEST)
s 1.031410497 _4_ MAC  --- 0 AODV 106 [0 ffffffff 4 800] ------- [4:255 -1:255 25 0] [0x2 6 1 [3 0] [0 4]] (REQUEST)
s 1.031970589 _5_ RTR  --- 0 AODV 48 [0 ffffffff 6 800] ------- [5:255 -1:255 25 0] [0x2 6 1 [1 0] [2 4]] (REQUEST)
r 1.032259068 _3_ MAC  --- 0 AODV 48 [0 ffffffff 4 800] ------- [4:255 -1:255 25 0] [0x2 6 1 [3 0] [0 4]] (REQUEST)
r 1.032259135 _2_ MAC  --- 0 AODV 48 [0 ffffffff 4 800] ------- [4:255 -1:255 25 0] [0x2 6 1 [3 0] [0 4]] (REQUEST)
r 1.032259272 _7_ MAC  --- 0 AODV 48 [0 ffffffff 4 800] ------- [4:255 -1:255 25 0] [0x2 6 1 [3 0] [0 4]] (REQUEST)
r 1.032284068 _3_ RTR  --- 0 AODV 48 [0 ffffffff 4 800] ------- [4:255 -1:255 25 0] [0x2 6 1 [3 0] [0 4]] (REQUEST)
s 1.032284068 _3_ RTR  --- 0 AODV 44 [0 0 0 0] ------- [3:255 0:255 30 4] [0x4 1 [3 4] 10.000000] (REPLY)
r 1.032284135 _2_ RTR  --- 0 AODV 48 [0 ffffffff 4 800] ------- [4:255 -1:255 25 0] [0x2 6 1 [3 0] [0 4]] (REQUEST)
r 1.032284272 _7_ RTR  --- 0 AODV 48 [0 ffffffff 4 800] ------- [4:255 -1:255 25 0] [0x2 6 1 [3 0] [0 4]] (REQUEST)
s 1.032565589 _5_ MAC  --- 0 AODV 106 [0 ffffffff 5 800] ------- [5:255 -1:255 25 0] [0x2 6 1 [1 0] [2 4]] (REQUEST)
s 1.032919068 _3_ MAC  --- 0 ARP 86 [0 ffffffff 3 806] ------- [REQUEST 3/3 0/4]
r 1.033414203 _0_ MAC  --- 0 AODV 48 [0 ffffffff 5 800] ------- [5:255 -1:255 25 0] [0x2 6 1 [1 0] [2 4]] (REQUEST)
r 1.033414280 _1_ MAC  --- 0 AODV 48 [0 ffffffff 5 800] ------- [5:255 -1:255 25 0] [0x2 6 1 [1 0] [2 4]] (REQUEST)
r 1.033414358 _6_ MAC  --- 0 AODV 48 [0 ffffffff 5 800] ------- [5:255 -1:255 25 0] [0x2 6 1 [1 0] [2 4]] (REQUEST)
r 1.033439203 _0_ RTR  --- 0 AODV 48 [0 ffffffff 5 800] ------- [5:255 -1:255 25 0] [0x2 6 1 [1 0] [2 4]] (REQUEST)
r 1.033439280 _1_ RTR  --- 0 AODV 48 [0 ffffffff 5 800] ------- [5:255 -1:255 25 0] [0x2 6 1 [1 0] [2 4]] (REQUEST)
s 1.033439280 _1_ RTR  --- 0 AODV 44 [0 0 0 0] ------- [1:255 2:255 30 5] [0x4 1 [1 4] 10.000000] (REPLY)
r 1.033439358 _6_ RTR  --- 0 AODV 48 [0 ffffffff 5 800] ------- [5:255 -1:255 25 0] [0x2 6 1 [1 0] [2 4]] (REQUEST)
s 1.033547286 _0_ RTR  --- 0 AODV 48 [0 ffffffff 5 800] ------- [0:255 -1:255 24 0] [0x2 7 1 [1 0] [2 4]] (REQUEST)
r 1.033607639 _4_ MAC  --- 0 ARP 28 [0 ffffffff 3 806] ------- [REQUEST 3/3 0/4]
s 1.033834280 _1_ MAC  --- 0 ARP 86 [0 ffffffff 1 806] ------- [REQUEST 1/1 0/5]
s 1.033842639 _4_ MAC  --- 0 RTS 44 [52e 3 4 0] 
r 1.034195211 _3_ MAC  --- 0 RTS 44 [52e 3 4 0] 
s 1.034205211 _3_ MAC  --- 0 CTS 38 [3f4 4 0 0] 
r 1.034509782 _4_ MAC  --- 0 CTS 38 [3f4 4 0 0] 
s 1.034519782 _4_ MAC  --- 0 ARP 86 [13a 3 4 806] ------- [REPLY 4/4 3/3]
r 1.034522971 _5_ MAC  --- 0 ARP 28 [0 ffffffff 1 806] ------- [REQUEST 1/1 0/5]
s 1.035057971 _5_ MAC  --- 0 RTS 44 [52e 1 5 0] 
r 1.035208354 _3_ MAC  --- 0 ARP 28 [13a 3 4 806] ------- [REPLY 4/4 3/3]
s 1.035218354 _3_ MAC  --- 0 ACK 38 [0 4 0 0] 
r 1.035410662 _1_ MAC  --- 0 RTS 44 [52e 1 5 0] 
s 1.035420662 _1_ MAC  --- 0 CTS 38 [3f4 5 0 0] 
r 1.035522925 _4_ MAC  --- 0 ACK 38 [0 4 0 0] 
s 1.035672354 _3_ MAC  --- 0 RTS 44 [5ae 4 3 0] 
r 1.035725354 _5_ MAC  --- 0 CTS 38 [3f4 5 0 0] 
s 1.035735354 _5_ MAC  --- 0 ARP 86 [13a 1 5 806] ------- [REPLY 5/5 1/1]
r 1.036024925 _4_ MAC  --- 0 RTS 44 [5ae 4 3 0] 
s 1.036034925 _4_ MAC  --- 0 CTS 38 [474 3 0 0] 
r 1.036339496 _3_ MAC  --- 0 CTS 38 [474 3 0 0] 
s 1.036349496 _3_ MAC  --- 0 AODV 102 [13a 4 3 800] ------- [3:255 0:255 30 4] [0x4 1 [3 4] 10.000000] (REPLY)
r 1.036424045 _1_ MAC  --- 0 ARP 28 [13a 1 5 806] ------- [REPLY 5/5 1/1]
s 1.036434045 _1_ MAC  --- 0 ACK 38 [0 5 0 0] 
r 1.036738736 _5_ MAC  --- 0 ACK 38 [0 5 0 0] 
s 1.037008045 _1_ MAC  --- 0 RTS 44 [5ae 5 1 0] 
r 1.037166068 _4_ MAC  --- 0 AODV 44 [13a 4 3 800] ------- [3:255 0:255 30 4] [0x4 1 [3 4] 10.000000] (REPLY)
s 1.037176068 _4_ MAC  --- 0 ACK 38 [0 3 0 0] 
r 1.037191068 _4_ RTR  --- 0 AODV 44 [13a 4 3 800] ------- [3:255 0:255 30 4] [0x4 1 [3 4] 10.000000] (REPLY)
f 1.037191068 _4_ RTR  --- 0 AODV 44 [13a 4 3 800] ------- [3:255 0:255 29 7] [0x4 2 [3 4] 10.000000] (REPLY)
r 1.037360736 _5_ MAC  --- 0 RTS 44 [5ae 5 1 0] 
s 1.037370736 _5_ MAC  --- 0 CTS 38 [474 1 0 0] 
r 1.037480639 _3_ MAC  --- 0 ACK 38 [0 3 0 0] 
r 1.037675428 _1_ MAC  --- 0 CTS 38 [474 1 0 0] 
s 1.037685428 _1_ MAC  --- 0 AODV 102 [13a 5 1 800] ------- [1:255 2:255 30 5] [0x4 1 [1 4] 10.000000] (REPLY)
s 1.037690068 _4_ MAC  --- 0 ARP 86 [0 ffffffff 4 806] ------- [REQUEST 4/4 0/7]
D 1.037690706 _2_ MAC  COL 0 ARP 86 [0 ffffffff 4 806] ------- [REQUEST 4/4 0/7]
D 1.037690843 _7_ MAC  COL 0 ARP 86 [0 ffffffff 4 806] ------- [REQUEST 4/4 0/7]
r 1.038378639 _3_ MAC  --- 0 ARP 28 [0 ffffffff 4 806] ------- [REQUEST 4/4 0/7]
r 1.038502119 _5_ MAC  --- 0 AODV 44 [13a 5 1 800] ------- [1:255 2:255 30 5] [0x4 1 [1 4] 10.000000] (REPLY)
s 1.038512119 _5_ MAC  --- 0 ACK 38 [0 1 0 0] 
r 1.038527119 _5_ RTR  --- 0 AODV 44 [13a 5 1 800] ------- [1:255 2:255 30 5] [0x4 1 [1 4] 10.000000] (REPLY)
f 1.038527119 _5_ RTR  --- 0 AODV 44 [13a 5 1 800] ------- [1:255 2:255 29 6] [0x4 2 [1 4] 10.000000] (REPLY)
r 1.038816810 _1_ MAC  --- 0 ACK 38 [0 1 0 0] 
s 1.038986119 _5_ MAC  --- 0 ARP 86 [0 ffffffff 5 806] ------- [REQUEST 5/5 0/6]
r 1.039674733 _0_ MAC  --- 0 ARP 28 [0 ffffffff 5 806] ------- [REQUEST 5/5 0/6]
r 1.039674810 _1_ MAC  --- 0 ARP 28 [0 ffffffff 5 806] ------- [REQUEST 5/5 0/6]
r 1.039674888 _6_ MAC  --- 0 ARP 28 [0 ffffffff 5 806] ------- [REQUEST 5/5 0/6]
s 1.039844733 _0_ MAC  --- 0 AODV 106 [0 ffffffff 0 800] ------- [0:255 -1:255 24 0] [0x2 7 1 [1 0] [2 4]] (REQUEST)
r 1.040693347 _5_ MAC  --- 0 AODV 48 [0 ffffffff 0 800] ------- [0:255 -1:255 24 0] [0x2 7 1 [1 0] [2 4]] (REQUEST)
r 1.040718347 _5_ RTR  --- 0 AODV 48 [0 ffffffff 0 800] ------- [0:255 -1:255 24 0] [0x2 7 1 [1 0] [2 4]] (REQUEST)
s 1.041197613 _2_ RTR  --- 0 AODV 48 [0 ffffffff 4 800] ------- [2:255 -1:255 24 0] [0x2 7 1 [3 0] [0 4]] (REQUEST)
s 1.041248111 _6_ MAC  --- 0 RTS 44 [52e 5 6 0] 
r 1.041600880 _5_ MAC  --- 0 RTS 44 [52e 5 6 0] 
s 1.041610880 _5_ MAC  --- 0 CTS 38 [3f4 6 0 0] 
r 1.041915650 _6_ MAC  --- 0 CTS 38 [3f4 6 0 0] 
s 1.041925650 _6_ MAC  --- 0 ARP 86 [13a 5 6 806] ------- [REPLY 6/6 5/5]
r 1.042614419 _5_ MAC  --- 0 ARP 28 [13a 5 6 806] ------- [REPLY 6/6 5/5]
s 1.042624419 _5_ MAC  --- 0 ACK 38 [0 6 0 0] 
r 1.042929189 _6_ MAC  --- 0 ACK 38 [0 6 0 0] 
s 1.042998419 _5_ MAC  --- 0 RTS 44 [5ae 6 5 0] 
s 1.043309181 _2_ MAC  --- 0 AODV 106 [0 ffffffff 2 800] ------- [2:255 -1:255 24 0] [0x2 7 1 [3 0] [0 4]] (REQUEST)
r 1.043351189 _6_ MAC  --- 0 RTS 44 [5ae 6 5 0] 
r 1.044157819 _4_ MAC  --- 0 AODV 48 [0 ffffffff 2 800] ------- [2:255 -1:255 24 0] [0x2 7 1 [3 0] [0 4]] (REQUEST)
r 1.044182819 _4_ RTR  --- 0 AODV 48 [0 ffffffff 2 800] ------- [2:255 -1:255 24 0] [0x2 7 1 [3 0] [0 4]] (REQUEST)
s 1.044638419 _5_ MAC  --- 0 RTS 44 [5ae 6 5 0] 
r 1.044991189 _6_ MAC  --- 0 RTS 44 [5ae 6 5 0] 
s 1.045001189 _6_ MAC  --- 0 CTS 38 [474 5 0 0] 
r 1.045305958 _5_ MAC  --- 0 CTS 38 [474 5 0 0] 
s 1.045315958 _5_ MAC  --- 0 AODV 102 [13a 6 5 800] ------- [1:255 2:255 29 6] [0x4 2 [1 4] 10.000000] (REPLY)
r 1.046132728 _6_ MAC  --- 0 AODV 44 [13a 6 5 800] ------- [1:255 2:255 29 6] [0x4 2 [1 4] 10.000000] (REPLY)
s 1.046142728 _6_ MAC  --- 0 ACK 38 [0 5 0 0] 
r 1.046157728 _6_ RTR  --- 0 AODV 44 [13a 6 5 800] ------- [1:255 2:255 29 6] [0x4 2 [1 4] 10.000000] (REPLY)
f 1.046157728 _6_ RTR  --- 0 AODV 44 [13a 6 5 800] ------- [1:255 2:255 28 8] [0x4 3 [1 4] 10.000000] (REPLY)
r 1.046447497 _5_ MAC  --- 0 ACK 38 [0 5 0 0] 
s 1.046916728 _6_ MAC  --- 0 ARP 86 [0 ffffffff 6 806] ------- [REQUEST 6/6 0/8]
r 1.047605244 _8_ MAC  --- 0 ARP 28 [0 ffffffff 6 806] ------- [REQUEST 6/6 0/8]
r 1.047605497 _5_ MAC  --- 0 ARP 28 [0 ffffffff 6 806] ------- [REQUEST 6/6 0/8]
s 1.048120244 _8_ MAC  --- 0 RTS 44 [52e 6 8 0] 
r 1.048472761 _6_ MAC  --- 0 RTS 44 [52e 6 8 0] 
s 1.048482761 _6_ MAC  --- 0 CTS 38 [3f4 8 0 0] 
r 1.048787278 _8_ MAC  --- 0 CTS 38 [3f4 8 0 0] 
s 1.048797278 _8_ MAC  --- 0 ARP 86 [13a 6 8 806] ------- [REPLY 8/8 6/6]
r 1.049485795 _6_ MAC  --- 0 ARP 28 [13a 6 8 806] ------- [REPLY 8/8 6/6]
s 1.049495795 _6_ MAC  --- 0 ACK 38 [0 8 0 0] 
r 1.049800312 _8_ MAC  --- 0 ACK 38 [0 8 0 0] 
s 1.049969795 _6_ MAC  --- 0 RTS 44 [5ae 8 6 0] 
r 1.050322312 _8_ MAC  --- 0 RTS 44 [5ae 8 6 0] 
s 1.050332312 _8_ MAC  --- 0 CTS 38 [474 6 0 0] 
r 1.050636828 _6_ MAC  --- 0 CTS 38 [474 6 0 0] 
s 1.050646828 _6_ MAC  --- 0 AODV 102 [13a 8 6 800] ------- [1:255 2:255 28 8] [0x4 3 [1 4] 10.000000] (REPLY)
r 1.051463345 _8_ MAC  --- 0 AODV 44 [13a 8 6 800] ------- [1:255 2:255 28 8] [0x4 3 [1 4] 10.000000] (REPLY)
s 1.051473345 _8_ MAC  --- 0 ACK 38 [0 6 0 0] 
r 1.051488345 _8_ RTR  --- 0 AODV 44 [13a 8 6 800] ------- [1:255 2:255 28 8] [0x4 3 [1 4] 10.000000] (REPLY)
f 1.051488345 _8_ RTR  --- 0 AODV 44 [13a 8 6 800] ------- [1:255 2:255 27 7] [0x4 4 [1 4] 10.000000] (REPLY)
r 1.051777862 _6_ MAC  --- 0 ACK 38 [0 6 0 0] 
s 1.051927345 _8_ MAC  --- 0 ARP 86 [0 ffffffff 8 806] ------- [REQUEST 8/8 0/7]
r 1.052615862 _6_ MAC  --- 0 ARP 28 [0 ffffffff 8 806] ------- [REQUEST 8/8 0/7]
r 1.052616028 _7_ MAC  --- 0 ARP 28 [0 ffffffff 8 806] ------- [REQUEST 8/8 0/7]
s 1.052931028 _7_ MAC  --- 0 RTS 44 [52e 8 7 0] 
r 1.053283712 _8_ MAC  --- 0 RTS 44 [52e 8 7 0] 
s 1.053293712 _8_ MAC  --- 0 CTS 38 [3f4 7 0 0] 
r 1.053598395 _7_ MAC  --- 0 CTS 38 [3f4 7 0 0] 
s 1.053608395 _7_ MAC  --- 0 ARP 86 [13a 8 7 806] ------- [REPLY 7/7 8/8]
r 1.054297078 _8_ MAC  --- 0 ARP 28 [13a 8 7 806] ------- [REPLY 7/7 8/8]
s 1.054307078 _8_ MAC  --- 0 ACK 38 [0 7 0 0] 
r 1.054611761 _7_ MAC  --- 0 ACK 38 [0 7 0 0] 
s 1.054861078 _8_ MAC  --- 0 RTS 44 [5ae 7 8 0] 
r 1.055213761 _7_ MAC  --- 0 RTS 44 [5ae 7 8 0] 
s 1.055223761 _7_ MAC  --- 0 CTS 38 [474 8 0 0] 
r 1.055528444 _8_ MAC  --- 0 CTS 38 [474 8 0 0] 
s 1.055538444 _8_ MAC  --- 0 AODV 102 [13a 7 8 800] ------- [1:255 2:255 27 7] [0x4 4 [1 4] 10.000000] (REPLY)
r 1.056355127 _7_ MAC  --- 0 AODV 44 [13a 7 8 800] ------- [1:255 2:255 27 7] [0x4 4 [1 4] 10.000000] (REPLY)
s 1.056365127 _7_ MAC  --- 0 ACK 38 [0 8 0 0] 
r 1.056380127 _7_ RTR  --- 0 AODV 44 [13a 7 8 800] ------- [1:255 2:255 27 7] [0x4 4 [1 4] 10.000000] (REPLY)
f 1.056380127 _7_ RTR  --- 0 AODV 44 [13a 7 8 800] ------- [1:255 2:255 26 4] [0x4 5 [1 4] 10.000000] (REPLY)
r 1.056669810 _8_ MAC  --- 0 ACK 38 [0 8 0 0] 
s 1.057059127 _7_ MAC  --- 0 ARP 86 [0 ffffffff 7 806] ------- [REQUEST 7/7 0/4]
r 1.057747810 _8_ MAC  --- 0 ARP 28 [0 ffffffff 7 806] ------- [REQUEST 7/7 0/4]
r 1.057747903 _4_ MAC  --- 0 ARP 28 [0 ffffffff 7 806] ------- [REQUEST 7/7 0/4]
s 1.057862903 _4_ MAC  --- 0 RTS 44 [5ae 7 4 0] 
r 1.058215678 _7_ MAC  --- 0 RTS 44 [5ae 7 4 0] 
s 1.058225678 _7_ MAC  --- 0 CTS 38 [474 4 0 0] 
r 1.058530454 _4_ MAC  --- 0 CTS 38 [474 4 0 0] 
s 1.058540454 _4_ MAC  --- 0 AODV 102 [13a 7 4 800] ------- [3:255 0:255 29 7] [0x4 2 [3 4] 10.000000] (REPLY)
r 1.059357229 _7_ MAC  --- 0 AODV 44 [13a 7 4 800] ------- [3:255 0:255 29 7] [0x4 2 [3 4] 10.000000] (REPLY)
s 1.059367229 _7_ MAC  --- 0 ACK 38 [0 4 0 0] 
r 1.059382229 _7_ RTR  --- 0 AODV 44 [13a 7 4 800] ------- [3:255 0:255 29 7] [0x4 2 [3 4] 10.000000] (REPLY)
f 1.059382229 _7_ RTR  --- 0 AODV 44 [13a 7 4 800] ------- [3:255 0:255 28 8] [0x4 3 [3 4] 10.000000] (REPLY)
r 1.059672005 _4_ MAC  --- 0 ACK 38 [0 4 0 0] 
s 1.059781229 _7_ MAC  --- 0 RTS 44 [5ae 8 7 0] 
r 1.060133912 _8_ MAC  --- 0 RTS 44 [5ae 8 7 0] 
s 1.060143912 _8_ MAC  --- 0 CTS 38 [474 7 0 0] 
r 1.060448595 _7_ MAC  --- 0 CTS 38 [474 7 0 0] 
s 1.060458595 _7_ MAC  --- 0 AODV 102 [13a 8 7 800] ------- [3:255 0:255 28 8] [0x4 3 [3 4] 10.000000] (REPLY)
r 1.061275279 _8_ MAC  --- 0 AODV 44 [13a 8 7 800] ------- [3:255 0:255 28 8] [0x4 3 [3 4] 10.000000] (REPLY)
s 1.061285279 _8_ MAC  --- 0 ACK 38 [0 7 0 0] 
r 1.061300279 _8_ RTR  --- 0 AODV 44 [13a 8 7 800] ------- [3:255 0:255 28 8] [0x4 3 [3 4] 10.000000] (REPLY)
f 1.061300279 _8_ RTR  --- 0 AODV 44 [13a 8 7 800] ------- [3:255 0:255 27 6] [0x4 4 [3 4] 10.000000] (REPLY)
r 1.061589962 _7_ MAC  --- 0 ACK 38 [0 7 0 0] 
s 1.061859279 _8_ MAC  --- 0 RTS 44 [5ae 6 8 0] 
r 1.062211795 _6_ MAC  --- 0 RTS 44 [5ae 6 8 0] 
s 1.062221795 _6_ MAC  --- 0 CTS 38 [474 8 0 0] 
r 1.062526312 _8_ MAC  --- 0 CTS 38 [474 8 0 0] 
s 1.062536312 _8_ MAC  --- 0 AODV 102 [13a 6 8 800] ------- [3:255 0:255 27 6] [0x4 4 [3 4] 10.000000] (REPLY)
r 1.063352829 _6_ MAC  --- 0 AODV 44 [13a 6 8 800] ------- [3:255 0:255 27 6] [0x4 4 [3 4] 10.000000] (REPLY)
s 1.063362829 _6_ MAC  --- 0 ACK 38 [0 8 0 0] 
r 1.063377829 _6_ RTR  --- 0 AODV 44 [13a 6 8 800] ------- [3:255 0:255 27 6] [0x4 4 [3 4] 10.000000] (REPLY)
f 1.063377829 _6_ RTR  --- 0 AODV 44 [13a 6 8 800] ------- [3:255 0:255 26 5] [0x4 5 [3 4] 10.000000] (REPLY)
r 1.063667346 _8_ MAC  --- 0 ACK 38 [0 8 0 0] 
s 1.064307708 _4_ MAC  --- 0 RTS 44 [52e 7 4 0] 
s 1.064316829 _6_ MAC  --- 0 RTS 44 [5ae 5 6 0] 
D 1.064318015 _7_ MAC  COL 0 RTS 44 [52e 7 4 0] 
r 1.064669599 _5_ MAC  --- 0 RTS 44 [5ae 5 6 0] 
s 1.064679599 _5_ MAC  --- 0 CTS 38 [474 6 0 0] 
r 1.064984368 _6_ MAC  --- 0 CTS 38 [474 6 0 0] 
s 1.064994368 _6_ MAC  --- 0 AODV 102 [13a 5 6 800] ------- [3:255 0:255 26 5] [0x4 5 [3 4] 10.000000] (REPLY)
r 1.065811137 _5_ MAC  --- 0 AODV 44 [13a 5 6 800] ------- [3:255 0:255 26 5] [0x4 5 [3 4] 10.000000] (REPLY)
s 1.065821137 _5_ MAC  --- 0 ACK 38 [0 6 0 0] 
r 1.065836137 _5_ RTR  --- 0 AODV 44 [13a 5 6 800] ------- [3:255 0:255 26 5] [0x4 5 [3 4] 10.000000] (REPLY)
f 1.065836137 _5_ RTR  --- 0 AODV 44 [13a 5 6 800] ------- [3:255 0:255 25 0] [0x4 6 [3 4] 10.000000] (REPLY)
r 1.066125907 _6_ MAC  --- 0 ACK 38 [0 6 0 0] 
s 1.066247708 _4_ MAC  --- 0 RTS 44 [52e 7 4 0] 
s 1.066475137 _5_ MAC  --- 0 ARP 86 [0 ffffffff 5 806] ------- [REQUEST 5/5 0/0]
r 1.066600483 _7_ MAC  --- 0 RTS 44 [52e 7 4 0] 
s 1.066610483 _7_ MAC  --- 0 CTS 38 [3f4 4 0 0] 
r 1.066915259 _4_ MAC  --- 0 CTS 38 [3f4 4 0 0] 
s 1.066925259 _4_ MAC  --- 0 ARP 86 [13a 7 4 806] ------- [REPLY 4/4 7/7]
r 1.067163752 _0_ MAC  --- 0 ARP 28 [0 ffffffff 5 806] ------- [REQUEST 5/5 0/0]
r 1.067163829 _1_ MAC  --- 0 ARP 28 [0 ffffffff 5 806] ------- [REQUEST 5/5 0/0]
D 1.067163907 _6_ MAC  COL 0 ARP 86 [0 ffffffff 5 806] ------- [REQUEST 5/5 0/0]
s 1.067558752 _0_ MAC  --- 0 RTS 44 [52e 5 0 0] 
r 1.067614034 _7_ MAC  --- 0 ARP 28 [13a 7 4 806] ------- [REPLY 4/4 7/7]
s 1.067624034 _7_ MAC  --- 0 ACK 38 [0 4 0 0] 
r 1.067911366 _5_ MAC  --- 0 RTS 44 [52e 5 0 0] 
s 1.067921366 _5_ MAC  --- 0 CTS 38 [3f4 0 0 0] 
r 1.067928809 _4_ MAC  --- 0 ACK 38 [0 4 0 0] 
s 1.068018034 _7_ MAC  --- 0 RTS 44 [5ae 4 7 0] 
r 1.068225980 _0_ MAC  --- 0 CTS 38 [3f4 0 0 0] 
s 1.068235980 _0_ MAC  --- 0 ARP 86 [13a 5 0 806] ------- [REPLY 0/0 5/5]
r 1.068370809 _4_ MAC  --- 0 RTS 44 [5ae 4 7 0] 
s 1.068380809 _4_ MAC  --- 0 CTS 38 [474 7 0 0] 
r 1.068685585 _7_ MAC  --- 0 CTS 38 [474 7 0 0] 
s 1.068695585 _7_ MAC  --- 0 AODV 102 [13a 4 7 800] ------- [1:255 2:255 26 4] [0x4 5 [1 4] 10.000000] (REPLY)
r 1.068924595 _5_ MAC  --- 0 ARP 28 [13a 5 0 806] ------- [REPLY 0/0 5/5]
s 1.068934595 _5_ MAC  --- 0 ACK 38 [0 0 0 0] 
r 1.069239209 _0_ MAC  --- 0 ACK 38 [0 0 0 0] 
s 1.069508595 _5_ MAC  --- 0 RTS 44 [5ae 0 5 0] 
r 1.069512360 _4_ MAC  --- 0 AODV 44 [13a 4 7 800] ------- [1:255 2:255 26 4] [0x4 5 [1 4] 10.000000] (REPLY)
s 1.069522360 _4_ MAC  --- 0 ACK 38 [0 7 0 0] 
r 1.069537360 _4_ RTR  --- 0 AODV 44 [13a 4 7 800] ------- [1:255 2:255 26 4] [0x4 5 [1 4] 10.000000] (REPLY)
f 1.069537360 _4_ RTR  --- 0 AODV 44 [13a 4 7 800] ------- [1:255 2:255 25 2] [0x4 6 [1 4] 10.000000] (REPLY)
r 1.069827136 _7_ MAC  --- 0 ACK 38 [0 7 0 0] 
r 1.069861209 _0_ MAC  --- 0 RTS 44 [5ae 0 5 0] 
s 1.069871209 _0_ MAC  --- 0 CTS 38 [474 5 0 0] 
r 1.070175823 _5_ MAC  --- 0 CTS 38 [474 5 0 0] 
s 1.070185823 _5_ MAC  --- 0 AODV 102 [13a 0 5 800] ------- [3:255 0:255 25 0] [0x4 6 [3 4] 10.000000] (REPLY)
s 1.070436360 _4_ MAC  --- 0 ARP 86 [0 ffffffff 4 806] ------- [REQUEST 4/4 0/2]
r 1.071002437 _0_ MAC  --- 0 AODV 44 [13a 0 5 800] ------- [3:255 0:255 25 0] [0x4 6 [3 4] 10.000000] (REPLY)
s 1.071012437 _0_ MAC  --- 0 ACK 38 [0 5 0 0] 
r 1.071027437 _0_ RTR  --- 0 AODV 44 [13a 0 5 800] ------- [3:255 0:255 25 0] [0x4 6 [3 4] 10.000000] (REPLY)
s 1.071027437 _0_ RTR  --- 0 tcp 40 [0 0 0 0] ------- [0:0 3:0 30 5] [0 0] 0 0
r 1.071124932 _3_ MAC  --- 0 ARP 28 [0 ffffffff 4 806] ------- [REQUEST 4/4 0/2]
r 1.071124999 _2_ MAC  --- 0 ARP 28 [0 ffffffff 4 806] ------- [REQUEST 4/4 0/2]
r 1.071125136 _7_ MAC  --- 0 ARP 28 [0 ffffffff 4 806] ------- [REQUEST 4/4 0/2]
s 1.071299999 _2_ MAC  --- 0 RTS 44 [52e 4 2 0] 
r 1.071317052 _5_ MAC  --- 0 ACK 38 [0 5 0 0] 
r 1.071652637 _4_ MAC  --- 0 RTS 44 [52e 4 2 0] 
s 1.071662637 _4_ MAC  --- 0 CTS 38 [3f4 2 0 0] 
s 1.071806437 _0_ MAC  --- 0 RTS 44 [58e 5 0 0] 
r 1.071967275 _2_ MAC  --- 0 CTS 38 [3f4 2 0 0] 
s 1.071977275 _2_ MAC  --- 0 ARP 86 [13a 4 2 806] ------- [REPLY 2/2 4/4]
r 1.072159052 _5_ MAC  --- 0 RTS 44 [58e 5 0 0] 
s 1.072169052 _5_ MAC  --- 0 CTS 38 [454 0 0 0] 
r 1.072473666 _0_ MAC  --- 0 CTS 38 [454 0 0 0] 
s 1.072483666 _0_ MAC  --- 0 tcp 98 [13a 5 0 800] ------- [0:0 3:0 30 5] [0 0] 0 0
r 1.072665913 _4_ MAC  --- 0 ARP 28 [13a 4 2 806] ------- [REPLY 2/2 4/4]
s 1.072675913 _4_ MAC  --- 0 ACK 38 [0 2 0 0] 
r 1.072980551 _2_ MAC  --- 0 ACK 38 [0 2 0 0] 
r 1.073268280 _5_ MAC  --- 0 tcp 40 [13a 5 0 800] ------- [0:0 3:0 30 5] [0 0] 1 0
s 1.073278280 _5_ MAC  --- 0 ACK 38 [0 0 0 0] 
r 1.073293280 _5_ RTR  --- 0 tcp 40 [13a 5 0 800] ------- [0:0 3:0 30 5] [0 0] 1 0
f 1.073293280 _5_ RTR  --- 0 tcp 40 [13a 5 0 800] ------- [0:0 3:0 29 6] [0 0] 1 0
s 1.073309913 _4_ MAC  --- 0 RTS 44 [5ae 2 4 0] 
r 1.073582895 _0_ MAC  --- 0 ACK 38 [0 0 0 0] 
s 1.073632280 _5_ MAC  --- 0 RTS 44 [58e 6 5 0] 
r 1.073662551 _2_ MAC  --- 0 RTS 44 [5ae 2 4 0] 
s 1.073672551 _2_ MAC  --- 0 CTS 38 [474 4 0 0] 
r 1.073977189 _4_ MAC  --- 0 CTS 38 [474 4 0 0] 
r 1.073985050 _6_ MAC  --- 0 RTS 44 [58e 6 5 0] 
s 1.073987189 _4_ MAC  --- 0 AODV 102 [13a 2 4 800] ------- [1:255 2:255 25 2] [0x4 6 [1 4] 10.000000] (REPLY)
s 1.074492280 _5_ MAC  --- 0 RTS 44 [58e 6 5 0] 
r 1.074803827 _2_ MAC  --- 0 AODV 44 [13a 2 4 800] ------- [1:255 2:255 25 2] [0x4 6 [1 4] 10.000000] (REPLY)
s 1.074813827 _2_ MAC  --- 0 ACK 38 [0 4 0 0] 
r 1.074828827 _2_ RTR  --- 0 AODV 44 [13a 2 4 800] ------- [1:255 2:255 25 2] [0x4 6 [1 4] 10.000000] (REPLY)
s 1.074828827 _2_ RTR  --- 1 tcp 40 [0 0 0 0] ------- [2:0 1:0 30 4] [0 0] 0 0
r 1.074845050 _6_ MAC  --- 0 RTS 44 [58e 6 5 0] 
r 1.075118465 _4_ MAC  --- 0 ACK 38 [0 4 0 0] 
s 1.075487827 _2_ MAC  --- 0 RTS 44 [58e 4 2 0] 
r 1.075840465 _4_ MAC  --- 0 RTS 44 [58e 4 2 0] 
s 1.075850465 _4_ MAC  --- 0 CTS 38 [454 2 0 0] 
r 1.076155104 _2_ MAC  --- 0 CTS 38 [454 2 0 0] 
s 1.076165104 _2_ MAC  --- 1 tcp 98 [13a 4 2 800] ------- [2:0 1:0 30 4] [0 0] 0 0
r 1.076949742 _4_ MAC  --- 1 tcp 40 [13a 4 2 800] ------- [2:0 1:0 30 4] [0 0] 1 0
s 1.076959742 _4_ MAC  --- 0 ACK 38 [0 2 0 0] 
r 1.076974742 _4_ RTR  --- 1 tcp 40 [13a 4 2 800] ------- [2:0 1:0 30 4] [0 0] 1 0
f 1.076974742 _4_ RTR  --- 1 tcp 40 [13a 4 2 800] ------- [2:0 1:0 29 7] [0 0] 1 0
r 1.077264380 _2_ MAC  --- 0 ACK 38 [0 2 0 0] 
s 1.077312280 _5_ MAC  --- 0 RTS 44 [58e 6 5 0] 
s 1.077433742 _4_ MAC  --- 0 RTS 44 [58e 7 4 0] 
r 1.077665050 _6_ MAC  --- 0 RTS 44 [58e 6 5 0] 
s 1.077675050 _6_ MAC  --- 0 CTS 38 [454 5 0 0] 
D 1.077676235 _7_ MAC  COL 0 RTS 44 [58e 7 4 0] 
r 1.077979819 _5_ MAC  --- 0 CTS 38 [454 5 0 0] 
s 1.077989819 _5_ MAC  --- 0 tcp 98 [13a 6 5 800] ------- [0:0 3:0 29 6] [0 0] 1 0
s 1.078273742 _4_ MAC  --- 0 RTS 44 [58e 7 4 0] 
r 1.078626517 _7_ MAC  --- 0 RTS 44 [58e 7 4 0] 
s 1.078636517 _7_ MAC  --- 0 CTS 38 [454 4 0 0] 
D 1.078637703 _6_ MAC  COL 0 tcp 98 [13a 6 5 800] ------- [0:0 3:0 29 6] [0 0] 1 0
r 1.078941293 _4_ MAC  --- 0 CTS 38 [454 4 0 0] 
s 1.078951293 _4_ MAC  --- 1 tcp 98 [13a 7 4 800] ------- [2:0 1:0 29 7] [0 0] 1 0
r 1.079736068 _7_ MAC  --- 1 tcp 40 [13a 7 4 800] ------- [2:0 1:0 29 7] [0 0] 2 0
s 1.079746068 _7_ MAC  --- 0 ACK 38 [0 4 0 0] 
r 1.079761068 _7_ RTR  --- 1 tcp 40 [13a 7 4 800] ------- [2:0 1:0 29 7] [0 0] 2 0
f 1.079761068 _7_ RTR  --- 1 tcp 40 [13a 7 4 800] ------- [2:0 1:0 28 8] [0 0] 2 0
r 1.080050843 _4_ MAC  --- 0 ACK 38 [0 4 0 0] 
s 1.080360068 _7_ MAC  --- 0 RTS 44 [58e 8 7 0] 
r 1.080712751 _8_ MAC  --- 0 RTS 44 [58e 8 7 0] 
s 1.080722751 _8_ MAC  --- 0 CTS 38 [454 7 0 0] 
r 1.081027434 _7_ MAC  --- 0 CTS 38 [454 7 0 0] 
s 1.081037434 _7_ MAC  --- 1 tcp 98 [13a 8 7 800] ------- [2:0 1:0 28 8] [0 0] 2 0
r 1.081822117 _8_ MAC  --- 1 tcp 40 [13a 8 7 800] ------- [2:0 1:0 28 8] [0 0] 3 0
s 1.081832117 _8_ MAC  --- 0 ACK 38 [0 7 0 0] 
r 1.081847117 _8_ RTR  --- 1 tcp 40 [13a 8 7 800] ------- [2:0 1:0 28 8] [0 0] 3 0
f 1.081847117 _8_ RTR  --- 1 tcp 40 [13a 8 7 800] ------- [2:0 1:0 27 6] [0 0] 3 0
r 1.082136801 _7_ MAC  --- 0 ACK 38 [0 7 0 0] 
s 1.082186117 _8_ MAC  --- 0 RTS 44 [58e 6 8 0] 
r 1.082538634 _6_ MAC  --- 0 RTS 44 [58e 6 8 0] 
s 1.082548634 _6_ MAC  --- 0 CTS 38 [454 8 0 0] 
r 1.082853151 _8_ MAC  --- 0 CTS 38 [454 8 0 0] 
s 1.082863151 _8_ MAC  --- 1 tcp 98 [13a 6 8 800] ------- [2:0 1:0 27 6] [0 0] 3 0
r 1.083647668 _6_ MAC  --- 1 tcp 40 [13a 6 8 800] ------- [2:0 1:0 27 6] [0 0] 4 0
s 1.083657668 _6_ MAC  --- 0 ACK 38 [0 8 0 0] 
r 1.083672668 _6_ RTR  --- 1 tcp 40 [13a 6 8 800] ------- [2:0 1:0 27 6] [0 0] 4 0
f 1.083672668 _6_ RTR  --- 1 tcp 40 [13a 6 8 800] ------- [2:0 1:0 26 5] [0 0] 4 0
r 1.083962185 _8_ MAC  --- 0 ACK 38 [0 8 0 0] 
s 1.084531668 _6_ MAC  --- 0 RTS 44 [58e 5 6 0] 
r 1.084884437 _5_ MAC  --- 0 RTS 44 [58e 5 6 0] 
s 1.084894437 _5_ MAC  --- 0 CTS 38 [454 6 0 0] 
r 1.085199207 _6_ MAC  --- 0 CTS 38 [454 6 0 0] 