n -t * -s 0  -x 275 -y 219 -Z 0 -z 20  -v circle -c black
n -t * -s 1  -x 549 -y 218 -Z 0 -z 20  -v circle -c black
n -t * -s 2  -x 935 -y 211 -Z 0 -z 20  -v circle -c black
n -t * -s 3  -x 1225 -y 199 -Z 0 -z 20  -v circle -c black
n -t * -s 4  -x 1097 -y 313 -Z 0 -z 20  -v circle -c black
n -t * -s 5  -x 396 -y 358 -Z 0 -z 20  -v circle -c black
n -t * -s 6  -x 578 -y 500 -Z 0 -z 20  -v circle -c black
n -t * -s 7  -x 933 -y 478 -Z 0 -z 20  -v circle -c black
n -t * -s 8  -x 732 -y 518 -Z 0 -z 20  -v circle -c black
V -t * -v 1.0a5 -a 0
W -t * -x 1325 -y 618
A -t * -n 1 -p 0 -o 0x7fffffff -c 30 -a 1
A -t * -h 1 -m 1073741823 -s 0
+ -t 1.000000000 -s 0 -d -1 -p tcp -e 40 -c 2 -a 0 -i 0 -k AGT 
- -t 1.000000000 -s 0 -d -1 -p tcp -e 40 -c 2 -a 0 -i 0 -k AGT
h -t 1.000000000 -s 0 -d -1 -p tcp -e 40 -c 2 -a 0 -i 0 -k AGT
+ -t 1.000000000 -s 2 -d -1 -p tcp -e 40 -c 2 -a 0 -i 1 -k AGT 
- -t 1.000000000 -s 2 -d -1 -p tcp -e 40 -c 2 -a 0 -i 1 -k AGT
h -t 1.000000000 -s 2 -d -1 -p tcp -e 40 -c 2 -a 0 -i 1 -k AGT
+ -t 1.000000000 -s 0 -d -1 -p AODV -e 48 -c 2 -a 0 -i 0 -k RTR 
- -t 1.000000000 -s 0 -d -1 -p AODV -e 48 -c 2 -a 0 -i 0 -k RTR
h -t 1.000000000 -s 0 -d -1 -p AODV -e 48 -c 2 -a 0 -i 0 -k RTR
+ -t 1.000000000 -s 2 -d -1 -p AODV -e 48 -c 2 -a 0 -i 0 -k RTR 
- -t 1.000000000 -s 2 -d -1 -p AODV -e 48 -c 2 -a 0 -i 0 -k RTR
h -t 1.000000000 -s 2 -d -1 -p AODV -e 48 -c 2 -a 0 -i 0 -k RTR
+ -t 1.000375000 -s 2 -d -1 -p AODV -e 106 -c 2 -a 0 -i 0 -k MAC 
- -t 1.000375000 -s 2 -d -1 -p AODV -e 106 -c 2 -a 0 -i 0 -k MAC
h -t 1.000375000 -s 2 -d -1 -p AODV -e 106 -c 2 -a 0 -i 0 -k MAC
+ -t 1.000635000 -s 0 -d -1 -p AODV -e 106 -c 2 -a 0 -i 0 -k MAC 
- -t 1.000635000 -s 0 -d -1 -p AODV -e 106 -c 2 -a 0 -i 0 -k MAC
h -t 1.000635000 -s 0 -d -1 -p AODV -e 106 -c 2 -a 0 -i 0 -k MAC
r -t 1.001223638 -s 4 -d -1 -p AODV -e 48 -c 2 -a 0 -i 0 -k MAC
r -t 1.001248638 -s 4 -d -1 -p AODV -e 48 -c 2 -a 0 -i 0 -k RTR
r -t 1.001483614 -s 5 -d -1 -p AODV -e 48 -c 2 -a 0 -i 0 -k MAC
r -t 1.001508614 -s 5 -d -1 -p AODV -e 48 -c 2 -a 0 -i 0 -k RTR
+ -t 1.009240193 -s 4 -d -1 -p AODV -e 48 -c 2 -a 0 -i 0 -k RTR 
- -t 1.009240193 -s 4 -d -1 -p AODV -e 48 -c 2 -a 0 -i 0 -k RTR
h -t 1.009240193 -s 4 -d -1 -p AODV -e 48 -c 2 -a 0 -i 0 -k RTR
+ -t 1.009555193 -s 4 -d -1 -p AODV -e 106 -c 2 -a 0 -i 0 -k MAC 
- -t 1.009555193 -s 4 -d -1 -p AODV -e 106 -c 2 -a 0 -i 0 -k MAC
h -t 1.009555193 -s 4 -d -1 -p AODV -e 106 -c 2 -a 0 -i 0 -k MAC
+ -t 1.009673375 -s 5 -d -1 -p AODV -e 48 -c 2 -a 0 -i 0 -k RTR 
- -t 1.009673375 -s 5 -d -1 -p AODV -e 48 -c 2 -a 0 -i 0 -k RTR
h -t 1.009673375 -s 5 -d -1 -p AODV -e 48 -c 2 -a 0 -i 0 -k RTR
+ -t 1.010108375 -s 5 -d -1 -p AODV -e 106 -c 2 -a 0 -i 0 -k MAC 
- -t 1.010108375 -s 5 -d -1 -p AODV -e 106 -c 2 -a 0 -i 0 -k MAC
h -t 1.010108375 -s 5 -d -1 -p AODV -e 106 -c 2 -a 0 -i 0 -k MAC
r -t 1.010403764 -s 3 -d -1 -p AODV -e 48 -c 2 -a 0 -i 0 -k MAC
r -t 1.010403831 -s 2 -d -1 -p AODV -e 48 -c 2 -a 0 -i 0 -k MAC
r -t 1.010403968 -s 7 -d -1 -p AODV -e 48 -c 2 -a 0 -i 0 -k MAC
r -t 1.010428764 -s 3 -d -1 -p AODV -e 48 -c 2 -a 0 -i 0 -k RTR
r -t 1.010428831 -s 2 -d -1 -p AODV -e 48 -c 2 -a 0 -i 0 -k RTR
r -t 1.010428968 -s 7 -d -1 -p AODV -e 48 -c 2 -a 0 -i 0 -k RTR
r -t 1.010956989 -s 0 -d -1 -p AODV -e 48 -c 2 -a 0 -i 0 -k MAC
r -t 1.010957066 -s 1 -d -1 -p AODV -e 48 -c 2 -a 0 -i 0 -k MAC
r -t 1.010957144 -s 6 -d -1 -p AODV -e 48 -c 2 -a 0 -i 0 -k MAC
r -t 1.010981989 -s 0 -d -1 -p AODV -e 48 -c 2 -a 0 -i 0 -k RTR
r -t 1.010982066 -s 1 -d -1 -p AODV -e 48 -c 2 -a 0 -i 0 -k RTR
r -t 1.010982144 -s 6 -d -1 -p AODV -e 48 -c 2 -a 0 -i 0 -k RTR
+ -t 1.012070422 -s 7 -d -1 -p AODV -e 48 -c 2 -a 0 -i 0 -k RTR 
- -t 1.012070422 -s 7 -d -1 -p AODV -e 48 -c 2 -a 0 -i 0 -k RTR
h -t 1.012070422 -s 7 -d -1 -p AODV -e 48 -c 2 -a 0 -i 0 -k RTR
+ -t 1.012120227 -s 6 -d -1 -p AODV -e 48 -c 2 -a 0 -i 0 -k RTR 
- -t 1.012120227 -s 6 -d -1 -p AODV -e 48 -c 2 -a 0 -i 0 -k RTR
h -t 1.012120227 -s 6 -d -1 -p AODV -e 48 -c 2 -a 0 -i 0 -k RTR
+ -t 1.012355227 -s 6 -d -1 -p AODV -e 106 -c 2 -a 0 -i 0 -k MAC 
- -t 1.012355227 -s 6 -d -1 -p AODV -e 106 -c 2 -a 0 -i 0 -k MAC
h -t 1.012355227 -s 6 -d -1 -p AODV -e 106 -c 2 -a 0 -i 0 -k MAC
r -t 1.013203744 -s 8 -d -1 -p AODV -e 48 -c 2 -a 0 -i 0 -k MAC
r -t 1.013203996 -s 5 -d -1 -p AODV -e 48 -c 2 -a 0 -i 0 -k MAC
r -t 1.013228744 -s 8 -d -1 -p AODV -e 48 -c 2 -a 0 -i 0 -k RTR
r -t 1.013228996 -s 5 -d -1 -p AODV -e 48 -c 2 -a 0 -i 0 -k RTR
+ -t 1.013658412 -s 7 -d -1 -p AODV -e 106 -c 2 -a 0 -i 0 -k MAC 
- -t 1.013658412 -s 7 -d -1 -p AODV -e 106 -c 2 -a 0 -i 0 -k MAC
h -t 1.013658412 -s 7 -d -1 -p AODV -e 106 -c 2 -a 0 -i 0 -k MAC
+ -t 1.014170132 -s 8 -d -1 -p AODV -e 48 -c 2 -a 0 -i 0 -k RTR 
- -t 1.014170132 -s 8 -d -1 -p AODV -e 48 -c 2 -a 0 -i 0 -k RTR
h -t 1.014170132 -s 8 -d -1 -p AODV -e 48 -c 2 -a 0 -i 0 -k RTR
r -t 1.014507096 -s 8 -d -1 -p AODV -e 48 -c 2 -a 0 -i 0 -k MAC
r -t 1.014507188 -s 4 -d -1 -p AODV -e 48 -c 2 -a 0 -i 0 -k MAC
r -t 1.014532096 -s 8 -d -1 -p AODV -e 48 -c 2 -a 0 -i 0 -k RTR
r -t 1.014532188 -s 4 -d -1 -p AODV -e 48 -c 2 -a 0 -i 0 -k RTR
+ -t 1.014877096 -s 8 -d -1 -p AODV -e 106 -c 2 -a 0 -i 0 -k MAC 
- -t 1.014877096 -s 8 -d -1 -p AODV -e 106 -c 2 -a 0 -i 0 -k MAC
h -t 1.014877096 -s 8 -d -1 -p AODV -e 106 -c 2 -a 0 -i 0 -k MAC
r -t 1.015725612 -s 6 -d -1 -p AODV -e 48 -c 2 -a 0 -i 0 -k MAC
r -t 1.015725779 -s 7 -d -1 -p AODV -e 48 -c 2 -a 0 -i 0 -k MAC
r -t 1.015750612 -s 6 -d -1 -p AODV -e 48 -c 2 -a 0 -i 0 -k RTR
r -t 1.015750779 -s 7 -d -1 -p AODV -e 48 -c 2 -a 0 -i 0 -k RTR
+ -t 1.017112975 -s 8 -d -1 -p AODV -e 48 -c 2 -a 0 -i 0 -k RTR 
- -t 1.017112975 -s 8 -d -1 -p AODV -e 48 -c 2 -a 0 -i 0 -k RTR
h -t 1.017112975 -s 8 -d -1 -p AODV -e 48 -c 2 -a 0 -i 0 -k RTR
+ -t 1.017382743 -s 1 -d -1 -p AODV -e 48 -c 2 -a 0 -i 0 -k RTR 
- -t 1.017382743 -s 1 -d -1 -p AODV -e 48 -c 2 -a 0 -i 0 -k RTR
h -t 1.017382743 -s 1 -d -1 -p AODV -e 48 -c 2 -a 0 -i 0 -k RTR
+ -t 1.017627975 -s 8 -d -1 -p AODV -e 106 -c 2 -a 0 -i 0 -k MAC 
- -t 1.017627975 -s 8 -d -1 -p AODV -e 106 -c 2 -a 0 -i 0 -k MAC
h -t 1.017627975 -s 8 -d -1 -p AODV -e 106 -c 2 -a 0 -i 0 -k MAC
r -t 1.018476492 -s 6 -d -1 -p AODV -e 48 -c 2 -a 0 -i 0 -k MAC
r -t 1.018476658 -s 7 -d -1 -p AODV -e 48 -c 2 -a 0 -i 0 -k MAC
r -t 1.018501492 -s 6 -d -1 -p AODV -e 48 -c 2 -a 0 -i 0 -k RTR
r -t 1.018501658 -s 7 -d -1 -p AODV -e 48 -c 2 -a 0 -i 0 -k RTR
+ -t 1.018791999 -s 3 -d -1 -p AODV -e 48 -c 2 -a 0 -i 0 -k RTR 
- -t 1.018791999 -s 3 -d -1 -p AODV -e 48 -c 2 -a 0 -i 0 -k RTR
h -t 1.018791999 -s 3 -d -1 -p AODV -e 48 -c 2 -a 0 -i 0 -k RTR
+ -t 1.018911146 -s 1 -d -1 -p AODV -e 106 -c 2 -a 0 -i 0 -k MAC 
- -t 1.018911146 -s 1 -d -1 -p AODV -e 106 -c 2 -a 0 -i 0 -k MAC
h -t 1.018911146 -s 1 -d -1 -p AODV -e 106 -c 2 -a 0 -i 0 -k MAC
+ -t 1.019406999 -s 3 -d -1 -p AODV -e 106 -c 2 -a 0 -i 0 -k MAC 
- -t 1.019406999 -s 3 -d -1 -p AODV -e 106 -c 2 -a 0 -i 0 -k MAC
h -t 1.019406999 -s 3 -d -1 -p AODV -e 106 -c 2 -a 0 -i 0 -k MAC
r -t 1.019759838 -s 5 -d -1 -p AODV -e 48 -c 2 -a 0 -i 0 -k MAC
r -t 1.019784838 -s 5 -d -1 -p AODV -e 48 -c 2 -a 0 -i 0 -k RTR
r -t 1.020255571 -s 4 -d -1 -p AODV -e 48 -c 2 -a 0 -i 0 -k MAC
r -t 1.020280571 -s 4 -d -1 -p AODV -e 48 -c 2 -a 0 -i 0 -k RTR
+ -t 1.020937267 -s 7 -d -1 -p AODV -e 48 -c 2 -a 0 -i 0 -k RTR 
- -t 1.020937267 -s 7 -d -1 -p AODV -e 48 -c 2 -a 0 -i 0 -k RTR
h -t 1.020937267 -s 7 -d -1 -p AODV -e 48 -c 2 -a 0 -i 0 -k RTR
+ -t 1.021312267 -s 7 -d -1 -p AODV -e 106 -c 2 -a 0 -i 0 -k MAC 
- -t 1.021312267 -s 7 -d -1 -p AODV -e 106 -c 2 -a 0 -i 0 -k MAC
h -t 1.021312267 -s 7 -d -1 -p AODV -e 106 -c 2 -a 0 -i 0 -k MAC
r -t 1.022160950 -s 8 -d -1 -p AODV -e 48 -c 2 -a 0 -i 0 -k MAC
r -t 1.022161042 -s 4 -d -1 -p AODV -e 48 -c 2 -a 0 -i 0 -k MAC
r -t 1.022185950 -s 8 -d -1 -p AODV -e 48 -c 2 -a 0 -i 0 -k RTR
r -t 1.022186042 -s 4 -d -1 -p AODV -e 48 -c 2 -a 0 -i 0 -k RTR
+ -t 1.026899744 -s 6 -d -1 -p AODV -e 48 -c 2 -a 0 -i 0 -k RTR 
- -t 1.026899744 -s 6 -d -1 -p AODV -e 48 -c 2 -a 0 -i 0 -k RTR
h -t 1.026899744 -s 6 -d -1 -p AODV -e 48 -c 2 -a 0 -i 0 -k RTR
+ -t 1.027054744 -s 6 -d -1 -p AODV -e 106 -c 2 -a 0 -i 0 -k MAC 
- -t 1.027054744 -s 6 -d -1 -p AODV -e 106 -c 2 -a 0 -i 0 -k MAC
h -t 1.027054744 -s 6 -d -1 -p AODV -e 106 -c 2 -a 0 -i 0 -k MAC
r -t 1.027903261 -s 8 -d -1 -p AODV -e 48 -c 2 -a 0 -i 0 -k MAC
r -t 1.027903513 -s 5 -d -1 -p AODV -e 48 -c 2 -a 0 -i 0 -k MAC
r -t 1.027928261 -s 8 -d -1 -p AODV -e 48 -c 2 -a 0 -i 0 -k RTR
r -t 1.027928513 -s 5 -d -1 -p AODV -e 48 -c 2 -a 0 -i 0 -k RTR
+ -t 1.031235497 -s 4 -d -1 -p AODV -e 48 -c 2 -a 0 -i 0 -k RTR 
- -t 1.031235497 -s 4 -d -1 -p AODV -e 48 -c 2 -a 0 -i 0 -k RTR
h -t 1.031235497 -s 4 -d -1 -p AODV -e 48 -c 2 -a 0 -i 0 -k RTR
+ -t 1.031410497 -s 4 -d -1 -p AODV -e 106 -c 2 -a 0 -i 0 -k MAC 
- -t 1.031410497 -s 4 -d -1 -p AODV -e 106 -c 2 -a 0 -i 0 -k MAC
h -t 1.031410497 -s 4 -d -1 -p AODV -e 106 -c 2 -a 0 -i 0 -k MAC
+ -t 1.031970589 -s 5 -d -1 -p AODV -e 48 -c 2 -a 0 -i 0 -k RTR 
- -t 1.031970589 -s 5 -d -1 -p AODV -e 48 -c 2 -a 0 -i 0 -k RTR
h -t 1.031970589 -s 5 -d -1 -p AODV -e 48 -c 2 -a 0 -i 0 -k RTR
r -t 1.032259068 -s 3 -d -1 -p AODV -e 48 -c 2 -a 0 -i 0 -k MAC
r -t 1.032259135 -s 2 -d -1 -p AODV -e 48 -c 2 -a 0 -i 0 -k MAC
r -t 1.032259272 -s 7 -d -1 -p AODV -e 48 -c 2 -a 0 -i 0 -k MAC
r -t 1.032284068 -s 3 -d -1 -p AODV -e 48 -c 2 -a 0 -i 0 -k RTR
+ -t 1.032284068 -s 3 -d 4 -p AODV -e 44 -c 2 -a 0 -i 0 -k RTR 
- -t 1.032284068 -s 3 -d 4 -p AODV -e 44 -c 2 -a 0 -i 0 -k RTR
h -t 1.032284068 -s 3 -d 4 -p AODV -e 44 -c 2 -a 0 -i 0 -k RTR
r -t 1.032284135 -s 2 -d -1 -p AODV -e 48 -c 2 -a 0 -i 0 -k RTR
r -t 1.032284272 -s 7 -d -1 -p AODV -e 48 -c 2 -a 0 -i 0 -k RTR
+ -t 1.032565589 -s 5 -d -1 -p AODV -e 106 -c 2 -a 0 -i 0 -k MAC 
- -t 1.032565589 -s 5 -d -1 -p AODV -e 106 -c 2 -a 0 -i 0 -k MAC
h -t 1.032565589 -s 5 -d -1 -p AODV -e 106 -c 2 -a 0 -i 0 -k MAC
+ -t 1.032919068 -s 3 -d -1 -p ARP -e 86 -c 2 -a 0 -i 0 -k MAC 
- -t 1.032919068 -s 3 -d -1 -p ARP -e 86 -c 2 -a 0 -i 0 -k MAC
h -t 1.032919068 -s 3 -d -1 -p ARP -e 86 -c 2 -a 0 -i 0 -k MAC
r -t 1.033414203 -s 0 -d -1 -p AODV -e 48 -c 2 -a 0 -i 0 -k MAC
r -t 1.033414280 -s 1 -d -1 -p AODV -e 48 -c 2 -a 0 -i 0 -k MAC
r -t 1.033414358 -s 6 -d -1 -p AODV -e 48 -c 2 -a 0 -i 0 -k MAC
r -t 1.033439203 -s 0 -d -1 -p AODV -e 48 -c 2 -a 0 -i 0 -k RTR
r -t 1.033439280 -s 1 -d -1 -p AODV -e 48 -c 2 -a 0 -i 0 -k RTR
+ -t 1.033439280 -s 1 -d 5 -p AODV -e 44 -c 2 -a 0 -i 0 -k RTR 
- -t 1.033439280 -s 1 -d 5 -p AODV -e 44 -c 2 -a 0 -i 0 -k RTR
h -t 1.033439280 -s 1 -d 5 -p AODV -e 44 -c 2 -a 0 -i 0 -k RTR
r -t 1.033439358 -s 6 -d -1 -p AODV -e 48 -c 2 -a 0 -i 0 -k RTR
+ -t 1.033547286 -s 0 -d -1 -p AODV -e 48 -c 2 -a 0 -i 0 -k RTR 
- -t 1.033547286 -s 0 -d -1 -p AODV -e 48 -c 2 -a 0 -i 0 -k RTR
h -t 1.033547286 -s 0 -d -1 -p AODV -e 48 -c 2 -a 0 -i 0 -k RTR
r -t 1.033607639 -s 4 -d -1 -p ARP -e 28 -c 2 -a 0 -i 0 -k MAC
+ -t 1.033834280 -s 1 -d -1 -p ARP -e 86 -c 2 -a 0 -i 0 -k MAC 
- -t 1.033834280 -s 1 -d -1 -p ARP -e 86 -c 2 -a 0 -i 0 -k MAC
h -t 1.033834280 -s 1 -d -1 -p ARP -e 86 -c 2 -a 0 -i 0 -k MAC
+ -t 1.033842639 -s 4 -d -1 -p RTS -e 44 -c 2 -a 0 -i 0 -k MAC 
- -t 1.033842639 -s 4 -d -1 -p RTS -e 44 -c 2 -a 0 -i 0 -k MAC
h -t 1.033842639 -s 4 -d -1 -p RTS -e 44 -c 2 -a 0 -i 0 -k MAC
r -t 1.034195211 -s 3 -d -1 -p RTS -e 44 -c 2 -a 0 -i 0 -k MAC
+ -t 1.034205211 -s 3 -d -1 -p CTS -e 38 -c 2 -a 0 -i 0 -k MAC 
- -t 1.034205211 -s 3 -d -1 -p CTS -e 38 -c 2 -a 0 -i 0 -k MAC
h -t 1.034205211 -s 3 -d -1 -p CTS -e 38 -c 2 -a 0 -i 0 -k MAC
r -t 1.034509782 -s 4 -d -1 -p CTS -e 38 -c 2 -a 0 -i 0 -k MAC
+ -t 1.034519782 -s 4 -d -1 -p ARP -e 86 -c 2 -a 0 -i 0 -k MAC 
- -t 1.034519782 -s 4 -d -1 -p ARP -e 86 -c 2 -a 0 -i 0 -k MAC
h -t 1.034519782 -s 4 -d -1 -p ARP -e 86 -c 2 -a 0 -i 0 -k MAC
r -t 1.034522971 -s 5 -d -1 -p ARP -e 28 -c 2 -a 0 -i 0 -k MAC
+ -t 1.035057971 -s 5 -d -1 -p RTS -e 44 -c 2 -a 0 -i 0 -k MAC 
- -t 1.035057971 -s 5 -d -1 -p RTS -e 44 -c 2 -a 0 -i 0 -k MAC
h -t 1.035057971 -s 5 -d -1 -p RTS -e 44 -c 2 -a 0 -i 0 -k MAC
r -t 1.035208354 -s 3 -d -1 -p ARP -e 28 -c 2 -a 0 -i 0 -k MAC
+ -t 1.035218354 -s 3 -d -1 -p ACK -e 38 -c 2 -a 0 -i 0 -k MAC 
- -t 1.035218354 -s 3 -d -1 -p ACK -e 38 -c 2 -a 0 -i 0 -k MAC
h -t 1.035218354 -s 3 -d -1 -p ACK -e 38 -c 2 -a 0 -i 0 -k MAC
r -t 1.035410662 -s 1 -d -1 -p RTS -e 44 -c 2 -a 0 -i 0 -k MAC
+ -t 1.035420662 -s 1 -d -1 -p CTS -e 38 -c 2 -a 0 -i 0 -k MAC 
- -t 1.035420662 -s 1 -d -1 -p CTS -e 38 -c 2 -a 0 -i 0 -k MAC
h -t 1.035420662 -s 1 -d -1 -p CTS -e 38 -c 2 -a 0 -i 0 -k MAC
r -t 1.035522925 -s 4 -d -1 -p ACK -e 38 -c 2 -a 0 -i 0 -k MAC
+ -t 1.035672354 -s 3 -d -1 -p RTS -e 44 -c 2 -a 0 -i 0 -k MAC 
- -t 1.035672354 -s 3 -d -1 -p RTS -e 44 -c 2 -a 0 -i 0 -k MAC
h -t 1.035672354 -s 3 -d -1 -p RTS -e 44 -c 2 -a 0 -i 0 -k MAC
r -t 1.035725354 -s 5 -d -1 -p CTS -e 38 -c 2 -a 0 -i 0 -k MAC
+ -t 1.035735354 -s 5 -d -1 -p ARP -e 86 -c 2 -a 0 -i 0 -k MAC 
- -t 1.035735354 -s 5 -d -1 -p ARP -e 86 -c 2 -a 0 -i 0 -k MAC
h -t 1.035735354 -s 5 -d -1 -p ARP -e 86 -c 2 -a 0 -i 0 -k MAC
r -t 1.036024925 -s 4 -d -1 -p RTS -e 44 -c 2 -a 0 -i 0 -k MAC
+ -t 1.036034925 -s 4 -d -1 -p CTS -e 38 -c 2 -a 0 -i 0 -k MAC 
- -t 1.036034925 -s 4 -d -1 -p CTS -e 38 -c 2 -a 0 -i 0 -k MAC
h -t 1.036034925 -s 4 -d -1 -p CTS -e 38 -c 2 -a 0 -i 0 -k MAC
r -t 1.036339496 -s 3 -d -1 -p CTS -e 38 -c 2 -a 0 -i 0 -k MAC
+ -t 1.036349496 -s 3 -d 4 -p AODV -e 102 -c 2 -a 0 -i 0 -k MAC 
- -t 1.036349496 -s 3 -d 4 -p AODV -e 102 -c 2 -a 0 -i 0 -k MAC
h -t 1.036349496 -s 3 -d 4 -p AODV -e 102 -c 2 -a 0 -i 0 -k MAC
r -t 1.036424045 -s 1 -d -1 -p ARP -e 28 -c 2 -a 0 -i 0 -k MAC
+ -t 1.036434045 -s 1 -d -1 -p ACK -e 38 -c 2 -a 0 -i 0 -k MAC 
- -t 1.036434045 -s 1 -d -1 -p ACK -e 38 -c 2 -a 0 -i 0 -k MAC
h -t 1.036434045 -s 1 -d -1 -p ACK -e 38 -c 2 -a 0 -i 0 -k MAC
r -t 1.036738736 -s 5 -d -1 -p ACK -e 38 -c 2 -a 0 -i 0 -k MAC
+ -t 1.037008045 -s 1 -d -1 -p RTS -e 44 -c 2 -a 0 -i 0 -k MAC 
- -t 1.037008045 -s 1 -d -1 -p RTS -e 44 -c 2 -a 0 -i 0 -k MAC
h -t 1.037008045 -s 1 -d -1 -p RTS -e 44 -c 2 -a 0 -i 0 -k MAC
r -t 1.037166068 -s 4 -d 4 -p AODV -e 44 -c 2 -a 0 -i 0 -k MAC
+ -t 1.037176068 -s 4 -d -1 -p ACK -e 38 -c 2 -a 0 -i 0 -k MAC 
- -t 1.037176068 -s 4 -d -1 -p ACK -e 38 -c 2 -a 0 -i 0 -k MAC
h -t 1.037176068 -s 4 -d -1 -p ACK -e 38 -c 2 -a 0 -i 0 -k MAC
+ -t 1.037191068 -s 4 -d 7 -p AODV -e 44 -c 2 -a 0 -i 0 -k RTR 
- -t 1.037191068 -s 4 -d 7 -p AODV -e 44 -c 2 -a 0 -i 0 -k RTR
h -t 1.037191068 -s 4 -d 7 -p AODV -e 44 -c 2 -a 0 -i 0 -k RTR
r -t 1.037360736 -s 5 -d -1 -p RTS -e 44 -c 2 -a 0 -i 0 -k MAC
+ -t 1.037370736 -s 5 -d -1 -p CTS -e 38 -c 2 -a 0 -i 0 -k MAC 
- -t 1.037370736 -s 5 -d -1 -p CTS -e 38 -c 2 -a 0 -i 0 -k MAC
h -t 1.037370736 -s 5 -d -1 -p CTS -e 38 -c 2 -a 0 -i 0 -k MAC
r -t 1.037480639 -s 3 -d -1 -p ACK -e 38 -c 2 -a 0 -i 0 -k MAC
r -t 1.037675428 -s 1 -d -1 -p CTS -e 38 -c 2 -a 0 -i 0 -k MAC
+ -t 1.037685428 -s 1 -d 5 -p AODV -e 102 -c 2 -a 0 -i 0 -k MAC 
- -t 1.037685428 -s 1 -d 5 -p AODV -e 102 -c 2 -a 0 -i 0 -k MAC
h -t 1.037685428 -s 1 -d 5 -p AODV -e 102 -c 2 -a 0 -i 0 -k MAC
+ -t 1.037690068 -s 4 -d -1 -p ARP -e 86 -c 2 -a 0 -i 0 -k MAC 
- -t 1.037690068 -s 4 -d -1 -p ARP -e 86 -c 2 -a 0 -i 0 -k MAC
h -t 1.037690068 -s 4 -d -1 -p ARP -e 86 -c 2 -a 0 -i 0 -k MAC
d -t 1.037690706 -s 2 -d -1 -p ARP -e 86 -c 2 -a 0 -i 0 -k MAC
d -t 1.037690843 -s 7 -d -1 -p ARP -e 86 -c 2 -a 0 -i 0 -k MAC
r -t 1.038378639 -s 3 -d -1 -p ARP -e 28 -c 2 -a 0 -i 0 -k MAC
r -t 1.038502119 -s 5 -d 5 -p AODV -e 44 -c 2 -a 0 -i 0 -k MAC
+ -t 1.038512119 -s 5 -d -1 -p ACK -e 38 -c 2 -a 0 -i 0 -k MAC 
- -t 1.038512119 -s 5 -d -1 -p ACK -e 38 -c 2 -a 0 -i 0 -k MAC
h -t 1.038512119 -s 5 -d -1 -p ACK -e 38 -c 2 -a 0 -i 0 -k MAC
+ -t 1.038527119 -s 5 -d 6 -p AODV -e 44 -c 2 -a 0 -i 0 -k RTR 
- -t 1.038527119 -s 5 -d 6 -p AODV -e 44 -c 2 -a 0 -i 0 -k RTR
h -t 1.038527119 -s 5 -d 6 -p AODV -e 44 -c 2 -a 0 -i 0 -k RTR
r -t 1.038816810 -s 1 -d -1 -p ACK -e 38 -c 2 -a 0 -i 0 -k MAC
+ -t 1.038986119 -s 5 -d -1 -p ARP -e 86 -c 2 -a 0 -i 0 -k MAC 
- -t 1.038986119 -s 5 -d -1 -p ARP -e 86 -c 2 -a 0 -i 0 -k MAC
h -t 1.038986119 -s 5 -d -1 -p ARP -e 86 -c 2 -a 0 -i 0 -k MAC
r -t 1.039674733 -s 0 -d -1 -p ARP -e 28 -c 2 -a 0 -i 0 -k MAC
r -t 1.039674810 -s 1 -d -1 -p ARP -e 28 -c 2 -a 0 -i 0 -k MAC
r -t 1.039674888 -s 6 -d -1 -p ARP -e 28 -c 2 -a 0 -i 0 -k MAC
+ -t 1.039844733 -s 0 -d -1 -p AODV -e 106 -c 2 -a 0 -i 0 -k MAC 
- -t 1.039844733 -s 0 -d -1 -p AODV -e 106 -c 2 -a 0 -i 0 -k MAC
h -t 1.039844733 -s 0 -d -1 -p AODV -e 106 -c 2 -a 0 -i 0 -k MAC
r -t 1.040693347 -s 5 -d -1 -p AODV -e 48 -c 2 -a 0 -i 0 -k MAC
r -t 1.040718347 -s 5 -d -1 -p AODV -e 48 -c 2 -a 0 -i 0 -k RTR
+ -t 1.041197613 -s 2 -d -1 -p AODV -e 48 -c 2 -a 0 -i 0 -k RTR 
- -t 1.041197613 -s 2 -d -1 -p AODV -e 48 -c 2 -a 0 -i 0 -k RTR
h -t 1.041197613 -s 2 -d -1 -p AODV -e 48 -c 2 -a 0 -i 0 -k RTR
+ -t 1.041248111 -s 6 -d -1 -p RTS -e 44 -c 2 -a 0 -i 0 -k MAC 
- -t 1.041248111 -s 6 -d -1 -p RTS -e 44 -c 2 -a 0 -i 0 -k MAC
h -t 1.041248111 -s 6 -d -1 -p RTS -e 44 -c 2 -a 0 -i 0 -k MAC
r -t 1.041600880 -s 5 -d -1 -p RTS -e 44 -c 2 -a 0 -i 0 -k MAC
+ -t 1.041610880 -s 5 -d -1 -p CTS -e 38 -c 2 -a 0 -i 0 -k MAC 
- -t 1.041610880 -s 5 -d -1 -p CTS -e 38 -c 2 -a 0 -i 0 -k MAC
h -t 1.041610880 -s 5 -d -1 -p CTS -e 38 -c 2 -a 0 -i 0 -k MAC
r -t 1.041915650 -s 6 -d -1 -p CTS -e 38 -c 2 -a 0 -i 0 -k MAC
+ -t 1.041925650 -s 6 -d -1 -p ARP -e 86 -c 2 -a 0 -i 0 -k MAC 
- -t 1.041925650 -s 6 -d -1 -p ARP -e 86 -c 2 -a 0 -i 0 -k MAC
h -t 1.041925650 -s 6 -d -1 -p ARP -e 86 -c 2 -a 0 -i 0 -k MAC
r -t 1.042614419 -s 5 -d -1 -p ARP -e 28 -c 2 -a 0 -i 0 -k MAC
+ -t 1.042624419 -s 5 -d -1 -p ACK -e 38 -c 2 -a 0 -i 0 -k MAC 
- -t 1.042624419 -s 5 -d -1 -p ACK -e 38 -c 2 -a 0 -i 0 -k MAC
h -t 1.042624419 -s 5 -d -1 -p ACK -e 38 -c 2 -a 0 -i 0 -k MAC
r -t 1.042929189 -s 6 -d -1 -p ACK -e 38 -c 2 -a 0 -i 0 -k MAC
+ -t 1.042998419 -s 5 -d -1 -p RTS -e 44 -c 2 -a 0 -i 0 -k MAC 
- -t 1.042998419 -s 5 -d -1 -p RTS -e 44 -c 2 -a 0 -i 0 -k MAC
h -t 1.042998419 -s 5 -d -1 -p RTS -e 44 -c 2 -a 0 -i 0 -k MAC
+ -t 1.043309181 -s 2 -d -1 -p AODV -e 106 -c 2 -a 0 -i 0 -k MAC 
- -t 1.043309181 -s 2 -d -1 -p AODV -e 106 -c 2 -a 0 -i 0 -k MAC
h -t 1.043309181 -s 2 -d -1 -p AODV -e 106 -c 2 -a 0 -i 0 -k MAC
r -t 1.043351189 -s 6 -d -1 -p RTS -e 44 -c 2 -a 0 -i 0 -k MAC
r -t 1.044157819 -s 4 -d -1 -p AODV -e 48 -c 2 -a 0 -i 0 -k MAC
r -t 1.044182819 -s 4 -d -1 -p AODV -e 48 -c 2 -a 0 -i 0 -k RTR
+ -t 1.044638419 -s 5 -d -1 -p RTS -e 44 -c 2 -a 0 -i 0 -k MAC 
- -t 1.044638419 -s 5 -d -1 -p RTS -e 44 -c 2 -a 0 -i 0 -k MAC
h -t 1.044638419 -s 5 -d -1 -p RTS -e 44 -c 2 -a 0 -i 0 -k MAC
r -t 1.044991189 -s 6 -d -1 -p RTS -e 44 -c 2 -a 0 -i 0 -k MAC
+ -t 1.045001189 -s 6 -d -1 -p CTS -e 38 -c 2 -a 0 -i 0 -k MAC 
- -t 1.045001189 -s 6 -d -1 -p CTS -e 38 -c 2 -a 0 -i 0 -k MAC
h -t 1.045001189 -s 6 -d -1 -p CTS -e 38 -c 2 -a 0 -i 0 -k MAC
r -t 1.045305958 -s 5 -d -1 -p CTS -e 38 -c 2 -a 0 -i 0 -k MAC
+ -t 1.045315958 -s 5 -d 6 -p AODV -e 102 -c 2 -a 0 -i 0 -k MAC 
- -t 1.045315958 -s 5 -d 6 -p AODV -e 102 -c 2 -a 0 -i 0 -k MAC
h -t 1.045315958 -s 5 -d 6 -p AODV -e 102 -c 2 -a 0 -i 0 -k MAC
r -t 1.046132728 -s 6 -d 6 -p AODV -e 44 -c 2 -a 0 -i 0 -k MAC
+ -t 1.046142728 -s 6 -d -1 -p ACK -e 38 -c 2 -a 0 -i 0 -k MAC 
- -t 1.046142728 -s 6 -d -1 -p ACK -e 38 -c 2 -a 0 -i 0 -k MAC
h -t 1.046142728 -s 6 -d -1 -p ACK -e 38 -c 2 -a 0 -i 0 -k MAC
+ -t 1.046157728 -s 6 -d 8 -p AODV -e 44 -c 2 -a 0 -i 0 -k RTR 
- -t 1.046157728 -s 6 -d 8 -p AODV -e 44 -c 2 -a 0 -i 0 -k RTR
h -t 1.046157728 -s 6 -d 8 -p AODV -e 44 -c 2 -a 0 -i 0 -k RTR
r -t 1.046447497 -s 5 -d -1 -p ACK -e 38 -c 2 -a 0 -i 0 -k MAC
+ -t 1.046916728 -s 6 -d -1 -p ARP -e 86 -c 2 -a 0 -i 0 -k MAC 
- -t 1.046916728 -s 6 -d -1 -p ARP -e 86 -c 2 -a 0 -i 0 -k MAC
h -t 1.046916728 -s 6 -d -1 -p ARP -e 86 -c 2 -a 0 -i 0 -k MAC
r -t 1.047605244 -s 8 -d -1 -p ARP -e 28 -c 2 -a 0 -i 0 -k MAC
r -t 1.047605497 -s 5 -d -1 -p ARP -e 28 -c 2 -a 0 -i 0 -k MAC
+ -t 1.048120244 -s 8 -d -1 -p RTS -e 44 -c 2 -a 0 -i 0 -k MAC 
- -t 1.048120244 -s 8 -d -1 -p RTS -e 44 -c 2 -a 0 -i 0 -k MAC
h -t 1.048120244 -s 8 -d -1 -p RTS -e 44 -c 2 -a 0 -i 0 -k MAC
r -t 1.048472761 -s 6 -d -1 -p RTS -e 44 -c 2 -a 0 -i 0 -k MAC
+ -t 1.048482761 -s 6 -d -1 -p CTS -e 38 -c 2 -a 0 -i 0 -k MAC 
- -t 1.048482761 -s 6 -d -1 -p CTS -e 38 -c 2 -a 0 -i 0 -k MAC
h -t 1.048482761 -s 6 -d -1 -p CTS -e 38 -c 2 -a 0 -i 0 -k MAC
r -t 1.048787278 -s 8 -d -1 -p CTS -e 38 -c 2 -a 0 -i 0 -k MAC
+ -t 1.048797278 -s 8 -d -1 -p ARP -e 86 -c 2 -a 0 -i 0 -k MAC 
- -t 1.048797278 -s 8 -d -1 -p ARP -e 86 -c 2 -a 0 -i 0 -k MAC
h -t 1.048797278 -s 8 -d -1 -p ARP -e 86 -c 2 -a 0 -i 0 -k MAC
r -t 1.049485795 -s 6 -d -1 -p ARP -e 28 -c 2 -a 0 -i 0 -k MAC
+ -t 1.049495795 -s 6 -d -1 -p ACK -e 38 -c 2 -a 0 -i 0 -k MAC 
- -t 1.049495795 -s 6 -d -1 -p ACK -e 38 -c 2 -a 0 -i 0 -k MAC
h -t 1.049495795 -s 6 -d -1 -p ACK -e 38 -c 2 -a 0 -i 0 -k MAC
r -t 1.049800312 -s 8 -d -1 -p ACK -e 38 -c 2 -a 0 -i 0 -k MAC
+ -t 1.049969795 -s 6 -d -1 -p RTS -e 44 -c 2 -a 0 -i 0 -k MAC 
- -t 1.049969795 -s 6 -d -1 -p RTS -e 44 -c 2 -a 0 -i 0 -k MAC
h -t 1.049969795 -s 6 -d -1 -p RTS -e 44 -c 2 -a 0 -i 0 -k MAC
r -t 1.050322312 -s 8 -d -1 -p RTS -e 44 -c 2 -a 0 -i 0 -k MAC
+ -t 1.050332312 -s 8 -d -1 -p CTS -e 38 -c 2 -a 0 -i 0 -k MAC 
- -t 1.050332312 -s 8 -d -1 -p CTS -e 38 -c 2 -a 0 -i 0 -k MAC
h -t 1.050332312 -s 8 -d -1 -p CTS -e 38 -c 2 -a 0 -i 0 -k MAC
r -t 1.050636828 -s 6 -d -1 -p CTS -e 38 -c 2 -a 0 -i 0 -k MAC
+ -t 1.050646828 -s 6 -d 8 -p AODV -e 102 -c 2 -a 0 -i 0 -k MAC 
- -t 1.050646828 -s 6 -d 8 -p AODV -e 102 -c 2 -a 0 -i 0 -k MAC
h -t 1.050646828 -s 6 -d 8 -p AODV -e 102 -c 2 -a 0 -i 0 -k MAC
r -t 1.051463345 -s 8 -d 8 -p AODV -e 44 -c 2 -a 0 -i 0 -k MAC
+ -t 1.051473345 -s 8 -d -1 -p ACK -e 38 -c 2 -a 0 -i 0 -k MAC 
- -t 1.051473345 -s 8 -d -1 -p ACK -e 38 -c 2 -a 0 -i 0 -k MAC
h -t 1.051473345 -s 8 -d -1 -p ACK -e 38 -c 2 -a 0 -i 0 -k MAC
+ -t 1.051488345 -s 8 -d 7 -p AODV -e 44 -c 2 -a 0 -i 0 -k RTR 
- -t 1.051488345 -s 8 -d 7 -p AODV -e 44 -c 2 -a 0 -i 0 -k RTR
h -t 1.051488345 -s 8 -d 7 -p AODV -e 44 -c 2 -a 0 -i 0 -k RTR
r -t 1.051777862 -s 6 -d -1 -p ACK -e 38 -c 2 -a 0 -i 0 -k MAC
+ -t 1.051927345 -s 8 -d -1 -p ARP -e 86 -c 2 -a 0 -i 0 -k MAC 
- -t 1.051927345 -s 8 -d -1 -p ARP -e 86 -c 2 -a 0 -i 0 -k MAC
h -t 1.051927345 -s 8 -d -1 -p ARP -e 86 -c 2 -a 0 -i 0 -k MAC
r -t 1.052615862 -s 6 -d -1 -p ARP -e 28 -c 2 -a 0 -i 0 -k MAC
r -t 1.052616028 -s 7 -d -1 -p ARP -e 28 -c 2 -a 0 -i 0 -k MAC
+ -t 1.052931028 -s 7 -d -1 -p RTS -e 44 -c 2 -a 0 -i 0 -k MAC 
- -t 1.052931028 -s 7 -d -1 -p RTS -e 44 -c 2 -a 0 -i 0 -k MAC
h -t 1.052931028 -s 7 -d -1 -p RTS -e 44 -c 2 -a 0 -i 0 -k MAC
r -t 1.053283712 -s 8 -d -1 -p RTS -e 44 -c 2 -a 0 -i 0 -k MAC
+ -t 1.053293712 -s 8 -d -1 -p CTS -e 38 -c 2 -a 0 -i 0 -k MAC 
- -t 1.053293712 -s 8 -d -1 -p CTS -e 38 -c 2 -a 0 -i 0 -k MAC
h -t 1.053293712 -s 8 -d -1 -p CTS -e 38 -c 2 -a 0 -i 0 -k MAC
r -t 1.053598395 -s 7 -d -1 -p CTS -e 38 -c 2 -a 0 -i 0 -k MAC
+ -t 1.053608395 -s 7 -d -1 -p ARP -e 86 -c 2 -a 0 -i 0 -k MAC 
- -t 1.053608395 -s 7 -d -1 -p ARP -e 86 -c 2 -a 0 -i 0 -k MAC
h -t 1.053608395 -s 7 -d -1 -p ARP -e 86 -c 2 -a 0 -i 0 -k MAC
r -t 1.054297078 -s 8 -d -1 -p ARP -e 28 -c 2 -a 0 -i 0 -k MAC
+ -t 1.054307078 -s 8 -d -1 -p ACK -e 38 -c 2 -a 0 -i 0 -k MAC 
- -t 1.054307078 -s 8 -d -1 -p ACK -e 38 -c 2 -a 0 -i 0 -k MAC
h -t 1.054307078 -s 8 -d -1 -p ACK -e 38 -c 2 -a 0 -i 0 -k MAC
r -t 1.054611761 -s 7 -d -1 -p ACK -e 38 -c 2 -a 0 -i 0 -k MAC
+ -t 1.054861078 -s 8 -d -1 -p RTS -e 44 -c 2 -a 0 -i 0 -k MAC 
- -t 1.054861078 -s 8 -d -1 -p RTS -e 44 -c 2 -a 0 -i 0 -k MAC
h -t 1.054861078 -s 8 -d -1 -p RTS -e 44 -c 2 -a 0 -i 0 -k MAC
r -t 1.055213761 -s 7 -d -1 -p RTS -e 44 -c 2 -a 0 -i 0 -k MAC
+ -t 1.055223761 -s 7 -d -1 -p CTS -e 38 -c 2 -a 0 -i 0 -k MAC 
- -t 1.055223761 -s 7 -d -1 -p CTS -e 38 -c 2 -a 0 -i 0 -k MAC
h -t 1.055223761 -s 7 -d -1 -p CTS -e 38 -c 2 -a 0 -i 0 -k MAC
r -t 1.055528444 -s 8 -d -1 -p CTS -e 38 -c 2 -a 0 -i 0 -k MAC
+ -t 1.055538444 -s 8 -d 7 -p AODV -e 102 -c 2 -a 0 -i 0 -k MAC 
- -t 1.055538444 -s 8 -d 7 -p AODV -e 102 -c 2 -a 0 -i 0 -k MAC
h -t 1.055538444 -s 8 -d 7 -p AODV -e 102 -c 2 -a 0 -i 0 -k MAC
r -t 1.056355127 -s 7 -d 7 -p AODV -e 44 -c 2 -a 0 -i 0 -k MAC
+ -t 1.056365127 -s 7 -d -1 -p ACK -e 38 -c 2 -a 0 -i 0 -k MAC 
- -t 1.056365127 -s 7 -d -1 -p ACK -e 38 -c 2 -a 0 -i 0 -k MAC
h -t 1.056365127 -s 7 -d -1 -p ACK -e 38 -c 2 -a 0 -i 0 -k MAC
+ -t 1.056380127 -s 7 -d 4 -p AODV -e 44 -c 2 -a 0 -i 0 -k RTR 
- -t 1.056380127 -s 7 -d 4 -p AODV -e 44 -c 2 -a 0 -i 0 -k RTR
h -t 1.056380127 -s 7 -d 4 -p AODV -e 44 -c 2 -a 0 -i 0 -k RTR
r -t 1.056669810 -s 8 -d -1 -p ACK -e 38 -c 2 -a 0 -i 0 -k MAC
+ -t 1.057059127 -s 7 -d -1 -p ARP -e 86 -c 2 -a 0 -i 0 -k MAC 
- -t 1.057059127 -s 7 -d -1 -p ARP -e 86 -c 2 -a 0 -i 0 -k MAC
h -t 1.057059127 -s 7 -d -1 -p ARP -e 86 -c 2 -a 0 -i 0 -k MAC
r -t 1.057747810 -s 8 -d -1 -p ARP -e 28 -c 2 -a 0 -i 0 -k MAC
r -t 1.057747903 -s 4 -d -1 -p ARP -e 28 -c 2 -a 0 -i 0 -k MAC
+ -t 1.057862903 -s 4 -d -1 -p RTS -e 44 -c 2 -a 0 -i 0 -k MAC 
- -t 1.057862903 -s 4 -d -1 -p RTS -e 44 -c 2 -a 0 -i 0 -k MAC
h -t 1.057862903 -s 4 -d -1 -p RTS -e 44 -c 2 -a 0 -i 0 -k MAC
r -t 1.058215678 -s 7 -d -1 -p RTS -e 44 -c 2 -a 0 -i 0 -k MAC
+ -t 1.058225678 -s 7 -d -1 -p CTS -e 38 -c 2 -a 0 -i 0 -k MAC 
- -t 1.058225678 -s 7 -d -1 -p CTS -e 38 -c 2 -a 0 -i 0 -k MAC
h -t 1.058225678 -s 7 -d -1 -p CTS -e 38 -c 2 -a 0 -i 0 -k MAC
r -t 1.058530454 -s 4 -d -1 -p CTS -e 38 -c 2 -a 0 -i 0 -k MAC
+ -t 1.058540454 -s 4 -d 7 -p AODV -e 102 -c 2 -a 0 -i 0 -k MAC 
- -t 1.058540454 -s 4 -d 7 -p AODV -e 102 -c 2 -a 0 -i 0 -k MAC
h -t 1.058540454 -s 4 -d 7 -p AODV -e 102 -c 2 -a 0 -i 0 -k MAC
r -t 1.059357229 -s 7 -d 7 -p AODV -e 44 -c 2 -a 0 -i 0 -k MAC
+ -t 1.059367229 -s 7 -d -1 -p ACK -e 38 -c 2 -a 0 -i 0 -k MAC 
- -t 1.059367229 -s 7 -d -1 -p ACK -e 38 -c 2 -a 0 -i 0 -k MAC
h -t 1.059367229 -s 7 -d -1 -p ACK -e 38 -c 2 -a 0 -i 0 -k MAC
+ -t 1.059382229 -s 7 -d 8 -p AODV -e 44 -c 2 -a 0 -i 0 -k RTR 
- -t 1.059382229 -s 7 -d 8 -p AODV -e 44 -c 2 -a 0 -i 0 -k RTR
h -t 1.059382229 -s 7 -d 8 -p AODV -e 44 -c 2 -a 0 -i 0 -k RTR
r -t 1.059672005 -s 4 -d -1 -p ACK -e 38 -c 2 -a 0 -i 0 -k MAC
+ -t 1.059781229 -s 7 -d -1 -p RTS -e 44 -c 2 -a 0 -i 0 -k MAC 
- -t 1.059781229 -s 7 -d -1 -p RTS -e 44 -c 2 -a 0 -i 0 -k MAC
h -t 1.059781229 -s 7 -d -1 -p RTS -e 44 -c 2 -a 0 -i 0 -k MAC
r -t 1.060133912 -s 8 -d -1 -p RTS -e 44 -c 2 -a 0 -i 0 -k MAC
+ -t 1.060143912 -s 8 -d -1 -p CTS -e 38 -c 2 -a 0 -i 0 -k MAC 
- -t 1.060143912 -s 8 -d -1 -p CTS -e 38 -c 2 -a 0 -i 0 -k MAC
h -t 1.060143912 -s 8 -d -1 -p CTS -e 38 -c 2 -a 0 -i 0 -k MAC
r -t 1.060448595 -s 7 -d -1 -p CTS -e 38 -c 2 -a 0 -i 0 -k MAC
+ -t 1.060458595 -s 7 -d 8 -p AODV -e 102 -c 2 -a 0 -i 0 -k MAC 
- -t 1.060458595 -s 7 -d 8 -p AODV -e 102 -c 2 -a 0 -i 0 -k MAC
h -t 1.060458595 -s 7 -d 8 -p AODV -e 102 -c 2 -a 0 -i 0 -k MAC
r -t 1.061275279 -s 8 -d 8 -p AODV -e 44 -c 2 -a 0 -i 0 -k MAC
+ -t 1.061285279 -s 8 -d -1 -p ACK -e 38 -c 2 -a 0 -i 0 -k MAC 
- -t 1.061285279 -s 8 -d -1 -p ACK -e 38 -c 2 -a 0 -i 0 -k MAC
h -t 1.061285279 -s 8 -d -1 -p ACK -e 38 -c 2 -a 0 -i 0 -k MAC
+ -t 1.061300279 -s 8 -d 6 -p AODV -e 44 -c 2 -a 0 -i 0 -k RTR 
- -t 1.061300279 -s 8 -d 6 -p AODV -e 44 -c 2 -a 0 -i 0 -k RTR
h -t 1.061300279 -s 8 -d 6 -p AODV -e 44 -c 2 -a 0 -i 0 -k RTR
r -t 1.061589962 -s 7 -d -1 -p ACK -e 38 -c 2 -a 0 -i 0 -k MAC
+ -t 1.061859279 -s 8 -d -1 -p RTS -e 44 -c 2 -a 0 -i 0 -k MAC 
- -t 1.061859279 -s 8 -d -1 -p RTS -e 44 -c 2 -a 0 -i 0 -k MAC
h -t 1.061859279 -s 8 -d -1 -p RTS -e 44 -c 2 -a 0 -i 0 -k MAC
r -t 1.062211795 -s 6 -d -1 -p RTS -e 44 -c 2 -a 0 -i 0 -k MAC
+ -t 1.062221795 -s 6 -d -1 -p CTS -e 38 -c 2 -a 0 -i 0 -k MAC 
- -t 1.062221795 -s 6 -d -1 -p CTS -e 38 -c 2 -a 0 -i 0 -k MAC
h -t 1.062221795 -s 6 -d -1 -p CTS -e 38 -c 2 -a 0 -i 0 -k MAC
r -t 1.062526312 -s 8 -d -1 -p CTS -e 38 -c 2 -a 0 -i 0 -k MAC
+ -t 1.062536312 -s 8 -d 6 -p AODV -e 102 -c 2 -a 0 -i 0 -k MAC 
- -t 1.062536312 -s 8 -d 6 -p AODV -e 102 -c 2 -a 0 -i 0 -k MAC
h -t 1.062536312 -s 8 -d 6 -p AODV -e 102 -c 2 -a 0 -i 0 -k MAC
r -t 1.063352829 -s 6 -d 6 -p AODV -e 44 -c 2 -a 0 -i 0 -k MAC
+ -t 1.063362829 -s 6 -d -1 -p ACK -e 38 -c 2 -a 0 -i 0 -k MAC 
- -t 1.063362829 -s 6 -d -1 -p ACK -e 38 -c 2 -a 0 -i 0 -k MAC
h -t 1.063362829 -s 6 -d -1 -p ACK -e 38 -c 2 -a 0 -i 0 -k MAC
+ -t 1.063377829 -s 6 -d 5 -p AODV -e 44 -c 2 -a 0 -i 0 -k RTR 
- -t 1.063377829 -s 6 -d 5 -p AODV -e 44 -c 2 -a 0 -i 0 -k RTR
h -t 1.063377829 -s 6 -d 5 -p AODV -e 44 -c 2 -a 0 -i 0 -k RTR
r -t 1.063667346 -s 8 -d -1 -p ACK -e 38 -c 2 -a 0 -i 0 -k MAC
+ -t 1.064307708 -s 4 -d -1 -p RTS -e 44 -c 2 -a 0 -i 0 -k MAC 
- -t 1.064307708 -s 4 -d -1 -p RTS -e 44 -c 2 -a 0 -i 0 -k MAC
h -t 1.064307708 -s 4 -d -1 -p RTS -e 44 -c 2 -a 0 -i 0 -k MAC
+ -t 1.064316829 -s 6 -d -1 -p RTS -e 44 -c 2 -a 0 -i 0 -k MAC 
- -t 1.064316829 -s 6 -d -1 -p RTS -e 44 -c 2 -a 0 -i 0 -k MAC
h -t 1.064316829 -s 6 -d -1 -p RTS -e 44 -c 2 -a 0 -i 0 -k MAC
d -t 1.064318015 -s 7 -d -1 -p RTS -e 44 -c 2 -a 0 -i 0 -k MAC
r -t 1.064669599 -s 5 -d -1 -p RTS -e 44 -c 2 -a 0 -i 0 -k MAC
+ -t 1.064679599 -s 5 -d -1 -p CTS -e 38 -c 2 -a 0 -i 0 -k MAC 
- -t 1.064679599 -s 5 -d -1 -p CTS -e 38 -c 2 -a 0 -i 0 -k MAC
h -t 1.064679599 -s 5 -d -1 -p CTS -e 38 -c 2 -a 0 -i 0 -k MAC
r -t 1.064984368 -s 6 -d -1 -p CTS -e 38 -c 2 -a 0 -i 0 -k MAC
+ -t 1.064994368 -s 6 -d 5 -p AODV -e 102 -c 2 -a 0 -i 0 -k MAC 
- -t 1.064994368 -s 6 -d 5 -p AODV -e 102 -c 2 -a 0 -i 0 -k MAC
h -t 1.064994368 -s 6 -d 5 -p AODV -e 102 -c 2 -a 0 -i 0 -k MAC
r -t 1.065811137 -s 5 -d 5 -p AODV -e 44 -c 2 -a 0 -i 0 -k MAC
+ -t 1.065821137 -s 5 -d -1 -p ACK -e 38 -c 2 -a 0 -i 0 -k MAC 
- -t 1.065821137 -s 5 -d -1 -p ACK -e 38 -c 2 -a 0 -i 0 -k MAC
h -t 1.065821137 -s 5 -d -1 -p ACK -e 38 -c 2 -a 0 -i 0 -k MAC
+ -t 1.065836137 -s 5 -d 0 -p AODV -e 44 -c 2 -a 0 -i 0 -k RTR 
- -t 1.065836137 -s 5 -d 0 -p AODV -e 44 -c 2 -a 0 -i 0 -k RTR